                              Psi4 1.0.54 Driver

  ==> Input File <==

--------------------------------------------------------------------------
set {
	reference rhf
	basis cc-pvtz
}

set_num_threads( 4 )
memory 2 gb

molecule MOL {
0 1

H	 -2.795942	 -2.005721	 0.949472
C	 -3.045930	 -1.329976	 0.120158
C	 -2.735472	 0.120999	 0.369519
O	 -3.530704	 -1.760728	 -0.868151
C	 -1.294940	 0.346956	 0.838014
H	 -2.954511	 0.679809	 -0.531085
H	 -3.420255	 0.455843	 1.145570
C	 -0.247837	 0.040196	 -0.230469
H	 -1.195282	 1.379608	 1.154302
H	 -1.104456	 -0.258607	 1.720739
C	 1.181757	 0.280428	 0.247371
H	 -0.444359	 0.653277	 -1.106035
H	 -0.347530	 -0.991375	 -0.558113
C	 2.151032	 -0.811012	 -0.202643
H	 1.515939	 1.247397	 -0.115449
H	 1.191514	 0.341223	 1.333422
C	 3.580021	 -0.656538	 0.320835
H	 2.170545	 -0.847575	 -1.289412
H	 1.766632	 -1.772905	 0.124928
C	 4.327657	 0.562694	 -0.213579
H	 4.138806	 -1.549270	 0.057813
H	 3.561991	 -0.620783	 1.406976
H	 4.355973	 0.557257	 -1.298551
H	 3.867136	 1.491650	 0.100501
H	 5.351524	 0.571613	 0.142204

	symmetry c1
}
set optking {
	frozen_dihedral = ("
		12 8 11 14
	")
}

ee,wfn = optimize('scf', return_wfn=True)
oeprop( wfn, 'DIPOLE', 'QUADRUPOLE', 'MULLIKEN_CHARGES')
f=open( 'psi4out.xyz', 'w' )
f.write( "25  " )
f.write( str(ee) + "\n" )
f.write( MOL.save_string_xyz() )
f.close()
--------------------------------------------------------------------------

    Molecular point group: c1
  Charge       = 0
  Multiplicity = 1
  Basis Set: CC-PVTZ
  Basis Set:
  @DF-RHF Final Energy:  -387.25592729855310
    Total Energy =                       -387.2559272985529333
    Molecular point group: c1
  Basis Set: CC-PVTZ
  Basis Set:
  Basis Set: CC-PVTZ
  Basis Set:
  @DF-RHF Final Energy:  -387.25615550806026
    Total Energy =                       -387.2561555080600328
  Basis Set: CC-PVTZ
  Basis Set:
  Basis Set: CC-PVTZ
  Basis Set:
  @DF-RHF Final Energy:  -387.25621938361513
    Total Energy =                       -387.2562193836150755
  Basis Set: CC-PVTZ
  Basis Set:
  Basis Set: CC-PVTZ
  Basis Set:
  @DF-RHF Final Energy:  -387.25602066311308
    Total Energy =                       -387.2560206631133042
  Basis Set: CC-PVTZ
  Basis Set:
  Basis Set: CC-PVTZ
  Basis Set:
  @DF-RHF Final Energy:  -387.25626848988986
    Total Energy =                       -387.2562684898898624
  Basis Set: CC-PVTZ
  Basis Set:
  Basis Set: CC-PVTZ
  Basis Set:
  @DF-RHF Final Energy:  -387.25626668641314
    Total Energy =                       -387.2562666864135963
  Basis Set: CC-PVTZ
  Basis Set:
  Basis Set: CC-PVTZ
  Basis Set:
  @DF-RHF Final Energy:  -387.25626963901414
    Total Energy =                       -387.2562696390143628
  Basis Set: CC-PVTZ
  Basis Set:
  Charge       = 0
  Multiplicity = 1
  Basis Set: CC-PVTZ
  Basis Set:

    Orbital Energies (a.u.)
    -----------------------

    Doubly Occupied:

       1A    -20.551333     2A    -11.320972     3A    -11.233642
       4A    -11.232984     5A    -11.221635     6A    -11.217596
       7A    -11.216382     8A    -11.215633     9A    -11.208756
      10A     -1.406340    11A     -1.104258    12A     -1.070938
      13A     -1.013331    14A     -0.943618    15A     -0.876039
      16A     -0.821445    17A     -0.788365    18A     -0.783201
      19A     -0.667939    20A     -0.660961    21A     -0.633441
      22A     -0.626996    23A     -0.604408    24A     -0.592500
      25A     -0.582075    26A     -0.552365    27A     -0.534856
      28A     -0.528000    29A     -0.509495    30A     -0.498160
      31A     -0.491513    32A     -0.479892    33A     -0.462251
      34A     -0.457961    35A     -0.442648    36A     -0.411794

  @DF-RHF Final Energy:  -387.25626964399919

   => Energetics <=

    Nuclear Repulsion Energy =            440.1294235633000653
    One-Electron Energy =               -1396.8439353076059888
    Two-Electron Energy =                 569.4582421003067338
    DFT Exchange-Correlation Energy =       0.0000000000000000
    Empirical Dispersion Energy =           0.0000000000000000
    PCM Polarization Energy =               0.0000000000000000
    EFP Energy =                            0.0000000000000000
    Total Energy =                       -387.2562696439991896
    Molecular point group: c1
  Basis Set: CC-PVTZ
  Basis Set:

  -Total Gradient:
     Atom            X                  Y                   Z
    ------   -----------------  -----------------  -----------------
       1        0.000001486145    -0.000001140423     0.000008406849
       2        0.000008678172    -0.000002590643     0.000000802639
       3       -0.000010417168    -0.000008926029     0.000006482221
       4       -0.000009277245    -0.000005040658    -0.000020370968
       5        0.000007584670     0.000016661057    -0.000007631848
       6       -0.000003798220     0.000007269086    -0.000001979040
       7       -0.000002604184    -0.000003999295     0.000003472837
       8        0.001296767929    -0.003817947653    -0.001817884531
       9        0.000007324795     0.000005440034    -0.000004101894
      10        0.000004775244     0.000000212103     0.000007098482
      11        0.000400395686     0.002555801166    -0.002526798540
      12       -0.001198904543     0.002644252131     0.002170626710
      13       -0.000005798431    -0.000001770804    -0.000004969215
      14       -0.000503650471    -0.001389198222     0.002193431911
      15        0.000000317070     0.000005592238    -0.000004578744
      16       -0.000000649545    -0.000000787478     0.000002642899
      17        0.000001640578    -0.000005687451    -0.000005613657
      18       -0.000000034943     0.000003989244    -0.000002112056
      19        0.000000434529    -0.000010002744     0.000002992986
      20        0.000000390770     0.000008749768     0.000002677980
      21       -0.000000099969    -0.000007808406     0.000001255644
      22       -0.000002159271    -0.000000745755     0.000003848748
      23       -0.000000205981     0.000000328654    -0.000009926713
      24        0.000000652801     0.000004928157    -0.000000555905
      25        0.000007151578     0.000002421921     0.000002783206

  **** Optimization is complete! (in 8 steps) ****
    Final optimized geometry and variables:
    Molecular point group: c1

    Geometry (in Angstrom), charge = 0, multiplicity = 1:

    H           -2.910176409231    -1.642608485450     0.868088438676
    C           -3.133434346078    -0.941312049261     0.052421044901
    C           -2.786666510697     0.494662830290     0.338610266174
    O           -3.619622338687    -1.335742718372    -0.950251540254
    C           -1.346547234194     0.669902654243     0.828419395270
    H           -2.980001271941     1.079532902973    -0.551310288492
    H           -3.471391305479     0.830385124872     1.114391659104
    C           -0.293131662046     0.346466672163    -0.231889282375
    H           -1.218787709818     1.694604009440     1.160978572187
    H           -1.184835446932     0.046440316401     1.704366417707
    C            1.143464190666     0.598354880622     0.257198796626
    H           -0.498651614191     0.964827121511    -1.099909710614
    H           -0.402404320671    -0.685293448799    -0.550333518519
    C            2.133612442379    -0.473074769129    -0.198317720787
    H            1.467684671370     1.579558942865    -0.068483129952
    H            1.153680548095     0.624407452875     1.344114569371
    C            3.568869467709    -0.270208784092     0.289162990113
    H            2.129882664071    -0.532950628661    -1.284606900369
    H            1.779672874891    -1.436538092308     0.157637211289
    C            4.280189048714     0.942255644955    -0.306933939986
    H            4.140974821166    -1.160835088682     0.048397891247
    H            3.571854544253    -0.193356741988     1.373472032884
    H            4.289344156927     0.893487658669    -1.391068807190
    H            3.805433905169     1.873368261423    -0.021929538047
    H            5.309770371742     0.986981578416     0.029160708219

  Mulliken Charges: (a.u.)
   Center  Symbol    Alpha    Beta     Spin     Total
       1     H     0.46416  0.46416  0.00000  0.07169
       2     C     2.90491  2.90491  0.00000  0.19018
       3     C     3.08892  3.08892  0.00000 -0.17783
       4     O     4.16638  4.16638  0.00000 -0.33275
       5     C     3.11515  3.11515  0.00000 -0.23030
       6     H     0.44304  0.44304  0.00000  0.11393
       7     H     0.44063  0.44063  0.00000  0.11874
       8     C     3.09409  3.09409  0.00000 -0.18818
       9     H     0.44218  0.44218  0.00000  0.11564
      10     H     0.45023  0.45023  0.00000  0.09954
      11     C     3.09653  3.09653  0.00000 -0.19306
      12     H     0.44750  0.44750  0.00000  0.10501
      13     H     0.44724  0.44724  0.00000  0.10552
      14     C     3.09615  3.09615  0.00000 -0.19230
      15     H     0.44707  0.44707  0.00000  0.10586
      16     H     0.45543  0.45543  0.00000  0.08914
      17     C     3.09049  3.09049  0.00000 -0.18097
      18     H     0.45114  0.45114  0.00000  0.09772
      19     H     0.44917  0.44917  0.00000  0.10166
      20     C     3.15199  3.15199  0.00000 -0.30398
      21     H     0.44774  0.44774  0.00000  0.10451
      22     H     0.45499  0.45499  0.00000  0.09003
      23     H     0.45422  0.45422  0.00000  0.09157
      24     H     0.45445  0.45445  0.00000  0.09109
      25     H     0.44623  0.44623  0.00000  0.10753

   Total alpha = 36.00000, Total beta = 36.00000, Total charge = -0.00000

*** Psi4 exiting successfully. Buy a developer a beer!
