  ==> Input File <==

--------------------------------------------------------------------------
set {
	reference rhf
	basis 6-31G*
}

set_num_threads( 4 )
memory 2 gb

molecule MOL {
0 1

H	 -0.021362	 1.262648	 4.626072
C	 -0.660881	 0.405515	 4.381205
C	 -1.481766	 0.560795	 3.126355
O	 -0.671714	 -0.551837	 5.084845
C	 -0.631681	 0.961804	 1.912764
H	 -2.015957	 -0.365658	 2.950188
H	 -2.218557	 1.339333	 3.320445
C	 0.348616	 -0.126469	 1.467815
H	 -1.298616	 1.204518	 1.090832
H	 -0.086345	 1.876516	 2.140069
C	 1.180775	 0.282413	 0.250794
H	 -0.206604	 -1.034009	 1.239890
H	 1.015814	 -0.380483	 2.289316
C	 2.148627	 -0.814315	 -0.201312
H	 0.509257	 0.544823	 -0.562801
H	 1.744483	 1.184240	 0.486006
C	 3.580890	 -0.659131	 0.322722
H	 2.166869	 -0.852443	 -1.289387
H	 1.762857	 -1.776509	 0.128956
C	 4.324889	 0.564933	 -0.213704
H	 4.142010	 -1.551473	 0.056605
H	 3.564836	 -0.624694	 1.410140
H	 4.342616	 0.565491	 -1.300421
H	 3.866655	 1.493402	 0.110242
H	 5.353900	 0.572371	 0.132816

	symmetry c1
}
set optking {
	frozen_dihedral = ("
		8 11 14 18
	")
}

ee = optimize('scf')
oeprop('DIPOLE', 'QUADRUPOLE', 'MULLIKEN_CHARGES')
f=open( 'psi4out.xyz', 'w' )
f.write( "25  " )
f.write( str(ee) + "\n" )
f.write( MOL.save_string_xyz() )
f.close()
--------------------------------------------------------------------------

    Molecular point group: c1
  Charge       = 0
  Multiplicity = 1
  Basis Set: 6-31G*
  Basis Set:
  @DF-RHF Final Energy:  -387.11757717583191
    Total Energy =                       -387.1175771758321389
    Molecular point group: c1
  Basis Set: 6-31G*
  Basis Set:
  Basis Set: 6-31G*
  Basis Set:
  @DF-RHF Final Energy:  -387.11777651353981
    Total Energy =                       -387.1177765135391837
  Basis Set: 6-31G*
  Basis Set:
  Basis Set: 6-31G*
  Basis Set:
  @DF-RHF Final Energy:  -387.11797973653336
    Total Energy =                       -387.1179797365330160
  Basis Set: 6-31G*
  Basis Set:
  Basis Set: 6-31G*
  Basis Set:
  @DF-RHF Final Energy:  -387.11806731129241
    Total Energy =                       -387.1180673112922932
  Basis Set: 6-31G*
  Basis Set:
  @DF-RHF Final Energy:  -387.11814893870798
    Total Energy =                       -387.1181489387075771
  Basis Set: 6-31G*
  Basis Set:
  @DF-RHF Final Energy:  -387.11812388811165
    Total Energy =                       -387.1181238881116542
  Basis Set: 6-31G*
  Basis Set:
  Basis Set: 6-31G*
  Basis Set:
  @DF-RHF Final Energy:  -387.11814337577545
    Total Energy =                       -387.1181433757755030
  Basis Set: 6-31G*
  Basis Set:
  Basis Set: 6-31G*
  Basis Set:
  @DF-RHF Final Energy:  -387.11816739411069
    Total Energy =                       -387.1181673941116514
  Basis Set: 6-31G*
  Basis Set:
  Charge       = 0
  Multiplicity = 1
  Basis Set: 6-31G*
  Basis Set:

    Orbital Energies (a.u.)
    -----------------------

    Doubly Occupied:

       1A    -20.562099     2A    -11.326260     3A    -11.235327
       4A    -11.234715     5A    -11.224107     6A    -11.219883
       7A    -11.218158     8A    -11.216743     9A    -11.210598
      10A     -1.402041    11A     -1.103548    12A     -1.068653
      13A     -1.012386    14A     -0.942200    15A     -0.874462
      16A     -0.825647    17A     -0.788166    18A     -0.777990
      19A     -0.665184    20A     -0.659901    21A     -0.632306
      22A     -0.623073    23A     -0.608724    24A     -0.589960
      25A     -0.570722    26A     -0.557002    27A     -0.534393
      28A     -0.521451    29A     -0.513747    30A     -0.495886
      31A     -0.488741    32A     -0.482940    33A     -0.459103
      34A     -0.454170    35A     -0.444278    36A     -0.409625

  @DF-RHF Final Energy:  -387.11816717903997

   => Energetics <=

    Nuclear Repulsion Energy =            443.3620288112119283
    One-Electron Energy =               -1403.0520140250644090
    Two-Electron Energy =                 572.5718180348127362
    DFT Exchange-Correlation Energy =       0.0000000000000000
    Empirical Dispersion Energy =           0.0000000000000000
    PCM Polarization Energy =               0.0000000000000000
    EFP Energy =                            0.0000000000000000
    Total Energy =                       -387.1181671790396877
    Molecular point group: c1
  Basis Set: 6-31G*
  Basis Set:

  -Total Gradient:
     Atom            X                  Y                   Z
    ------   -----------------  -----------------  -----------------
       1        0.000021820112    -0.000012408795    -0.000019869763
       2       -0.000059196405     0.000023451590     0.000039646093
       3        0.000028415524    -0.000003416303    -0.000035499951
       4        0.000018694483    -0.000012295337    -0.000014848341
       5       -0.000042483458    -0.000017850936    -0.000002221234
       6       -0.000005727720     0.000004819051     0.000001022261
       7       -0.000004119226     0.000004599687     0.000016025176
       8       -0.001434722041    -0.000784854501    -0.001251279676
       9        0.000002717367     0.000001361834    -0.000001261011
      10       -0.000003621647     0.000000056273     0.000003077412
      11        0.001476164582     0.000668649894     0.001778807563
      12        0.000013422736     0.000000846894     0.000002106357
      13        0.000003299025     0.000005686492     0.000003453116
      14        0.002042498661     0.002138150318    -0.000521451069
      15       -0.000007519199     0.000024945339     0.000010647184
      16       -0.000038373352    -0.000048320789    -0.000001557640
      17        0.000003087457    -0.000005994148    -0.000016402273
      18       -0.002106126349    -0.001996804031     0.000037757616
      19       -0.000021334486     0.000007489940     0.000016524242
      20        0.000031175855     0.000033471371    -0.000015292093
      21       -0.000013137659     0.000011275023    -0.000036784131
      22        0.000026109500    -0.000035603782     0.000018627431
      23        0.000060130671    -0.000004530996    -0.000014076299
      24        0.000028021248    -0.000041582156    -0.000020662576
      25       -0.000019195675     0.000038858070     0.000023511596

  **** Optimization is complete! (in 9 steps) ****
    Final optimized geometry and variables:
    Molecular point group: c1

    Geometry (in Angstrom), charge = 0, multiplicity = 1:

    H           -0.952099176284     1.117647067177     2.873852082557
    C           -1.605520850295     0.282534922979     2.591974961110
    C           -2.409202757164     0.498468625825     1.334912591044
    O           -1.646605530079    -0.696412114193     3.264163022970
    C           -1.536784489946     0.918135243427     0.143540497693
    H           -2.962917545314    -0.408915339373     1.123119055893
    H           -3.129645723986     1.287419201274     1.547098085455
    C           -0.577653189906    -0.177659043072    -0.327384871202
    H           -2.188848582265     1.203692108170    -0.676971140941
    H           -0.972683656220     1.811562388151     0.406119996480
    C            0.252978038315     0.238961718762    -1.544278941379
    H           -1.148983486022    -1.069719347234    -0.573969239733
    H            0.086526505651    -0.461657921144     0.487400700488
    C            1.253667749741    -0.844222514414    -1.994229893130
    H           -0.428974343768     0.466816496440    -2.360067548461
    H            0.774391503791     1.167123998876    -1.325682304647
    C            2.676649901418    -0.672816897115    -1.448299964609
    H            1.283784426542    -0.893802992590    -3.079898010561
    H            0.876183401251    -1.813827767636    -1.677197467886
    C            3.460703395392     0.469300044480    -2.097060222671
    H            3.223838428498    -1.599376848141    -1.601690703407
    H            2.636024625038    -0.521779825241    -0.371328438906
    H            3.568064306655     0.306773849345    -3.165935041023
    H            2.974035251689     1.429402016109    -1.957936858383
    H            4.457214600229     0.545186724305    -1.672908109811

  Mulliken Charges: (a.u.)
   Center  Symbol    Alpha    Beta     Spin     Total
       1     H     0.43264  0.43264  0.00000  0.13471
       2     C     2.83084  2.83084  0.00000  0.33831
       3     C     3.20807  3.20807  0.00000 -0.41615
       4     O     4.23777  4.23777  0.00000 -0.47554
       5     C     3.16693  3.16693  0.00000 -0.33387
       6     H     0.39971  0.39971  0.00000  0.20058
       7     H     0.40664  0.40664  0.00000  0.18673
       8     C     3.15642  3.15642  0.00000 -0.31283
       9     H     0.41282  0.41282  0.00000  0.17436
      10     H     0.41962  0.41962  0.00000  0.16077
      11     C     3.15580  3.15580  0.00000 -0.31159
      12     H     0.41754  0.41754  0.00000  0.16491
      13     H     0.41829  0.41829  0.00000  0.16342
      14     C     3.15788  3.15788  0.00000 -0.31577
      15     H     0.42046  0.42046  0.00000  0.15908
      16     H     0.42098  0.42098  0.00000  0.15804
      17     C     3.15399  3.15399  0.00000 -0.30799
      18     H     0.42031  0.42031  0.00000  0.15937
      19     H     0.41889  0.41889  0.00000  0.16222
      20     C     3.24019  3.24019  0.00000 -0.48038
      21     H     0.41967  0.41967  0.00000  0.16065
      22     H     0.42276  0.42276  0.00000  0.15448
      23     H     0.42149  0.42149  0.00000  0.15702
      24     H     0.42156  0.42156  0.00000  0.15688
      25     H     0.41870  0.41870  0.00000  0.16259

   Total alpha = 36.00000, Total beta = 36.00000, Total charge =  0.00000
