  ==> Input File <==

--------------------------------------------------------------------------
set {
	reference rhf
	basis cc-pvtz
}

set_num_threads( 4 )
memory 2 gb

molecule MOL {
0 1

H	 1.348116	 -1.300694	 -0.345546
C	 0.788096	 -0.429819	 0.000000
N	 -0.537714	 -0.645117	 0.000000
O	 1.333201	 0.575690	 0.329441
C	 -1.522613	 0.412524	 0.000000
H	 -0.845894	 -1.585866	 0.000000
H	 -2.150256	 0.356137	 -0.880771
H	 -1.005621	 1.357208	 0.000000
H	 -2.150256	 0.356137	 0.880771

	symmetry c1
}
set optking {
	frozen_dihedral = ("
		1 2 3 6
	")
}

ee = optimize('scf')
oeprop('DIPOLE', 'QUADRUPOLE', 'MULLIKEN_CHARGES')
f=open( 'psi4out.xyz', 'w' )
f.write( "9  " )
f.write( str(ee) + "\n" )
f.write( MOL.save_string_xyz() )
f.close()
--------------------------------------------------------------------------

    Molecular point group: c1
  Charge       = 0
  Multiplicity = 1
  Basis Set: CC-PVTZ
  Basis Set:
  @DF-RHF Final Energy:  -208.03903929054300
    Total Energy =                       -208.0390392905430872
    Molecular point group: c1
  Basis Set: CC-PVTZ
  Basis Set:
  Basis Set: CC-PVTZ
  Basis Set:
  @DF-RHF Final Energy:  -208.03996943990458
    Total Energy =                       -208.0399694399043824
  Basis Set: CC-PVTZ
  Basis Set:
  Basis Set: CC-PVTZ
  Basis Set:
  @DF-RHF Final Energy:  -208.04145760935262
    Total Energy =                       -208.0414576093526478
  Basis Set: CC-PVTZ
  Basis Set:
  Basis Set: CC-PVTZ
  Basis Set:
  @DF-RHF Final Energy:  -208.04214400739465
    Total Energy =                       -208.0421440073947110
  Basis Set: CC-PVTZ
  Basis Set:
  @DF-RHF Final Energy:  -208.04246889134430
    Total Energy =                       -208.0424688913442992
  @DF-RHF Final Energy:  -208.04263646451403
    Total Energy =                       -208.0426364645139756
  @DF-RHF Final Energy:  -208.04271617802033
    Total Energy =                       -208.0427161780203562
  @DF-RHF Final Energy:  -208.04273474381517
    Total Energy =                       -208.0427347438152026
  @DF-RHF Final Energy:  -208.04278793964068
    Total Energy =                       -208.0427879396407036
  @DF-RHF Final Energy:  -208.04293519551692
    Total Energy =                       -208.0429351955169182
  @DF-RHF Final Energy:  -208.04314919121111
    Total Energy =                       -208.0431491912111710
  Basis Set: CC-PVTZ
  Basis Set:
  @DF-RHF Final Energy:  -208.04318784472844
    Total Energy =                       -208.0431878447284362
  Basis Set: CC-PVTZ
  Basis Set:
  Basis Set: CC-PVTZ
  Basis Set:
  @DF-RHF Final Energy:  -208.04320374821060
    Total Energy =                       -208.0432037482106580
  Basis Set: CC-PVTZ
  Basis Set:
  Basis Set: CC-PVTZ
  Basis Set:
  @DF-RHF Final Energy:  -208.04320476389827
    Total Energy =                       -208.0432047638983590
  Basis Set: CC-PVTZ
  Basis Set:
  Charge       = 0
  Multiplicity = 1
  Basis Set: CC-PVTZ
  Basis Set:

    Orbital Energies (a.u.)
    -----------------------

    Doubly Occupied:

       1A    -20.520254     2A    -15.584086     3A    -11.337481
       4A    -11.259027     5A     -1.396888     6A     -1.239137
       7A     -0.967890     8A     -0.807796     9A     -0.747752
      10A     -0.647213    11A     -0.631694    12A     -0.593921
      13A     -0.556807    14A     -0.538782    15A     -0.430910
      16A     -0.399417

  @DF-RHF Final Energy:  -208.04320477196472

   => Energetics <=

    Nuclear Repulsion Energy =            122.9201267761485923
    One-Electron Energy =                -526.6085535135889586
    Two-Electron Energy =                 195.6452219654756561
    DFT Exchange-Correlation Energy =       0.0000000000000000
    Empirical Dispersion Energy =           0.0000000000000000
    PCM Polarization Energy =               0.0000000000000000
    EFP Energy =                            0.0000000000000000
    Total Energy =                       -208.0432047719646960
    Molecular point group: c1
  Basis Set: CC-PVTZ
  Basis Set:

  -Total Gradient:
     Atom            X                  Y                   Z
    ------   -----------------  -----------------  -----------------
       1        0.000550161693     0.000889708981    -0.002273743796
       2       -0.000862425041    -0.001117638216     0.003693417557
       3        0.000932856413     0.000201545080    -0.003570383428
       4       -0.000024530733    -0.000022827422    -0.000031478743
       5        0.000065407205     0.000106522443    -0.000182529254
       6       -0.000662781965    -0.000060619097     0.002382958359
       7        0.000012241833    -0.000005744803    -0.000009190463
       8       -0.000002265731    -0.000000649105    -0.000008366393
       9       -0.000008663670     0.000009702141    -0.000000683838

  **** Optimization is complete! (in 15 steps) ****
    Final optimized geometry and variables:
    Molecular point group: c1

    Geometry (in Angstrom), charge = 0, multiplicity = 1:

    H            1.386411788080    -1.327096722150    -0.197925363913
    C            0.784200261850    -0.439464198976     0.004661405282
    N           -0.502569309540    -0.587857724910    -0.367382994689
    O            1.257158315483     0.554198313102     0.455106303779
    C           -1.483084715079     0.445606441056    -0.111525542581
    H           -0.828392579279    -1.517233858887    -0.478667663119
    H           -2.376899664418     0.227556693467    -0.678448830830
    H           -1.090170008653     1.398106688836    -0.430362509391
    H           -1.738592824587     0.517904311668     0.939498049855

  Mulliken Charges: (a.u.)
   Center  Symbol    Alpha    Beta     Spin     Total
       1     H     0.46280  0.46280  0.00000  0.07439
       2     C     2.88053  2.88053  0.00000  0.23894
       3     N     3.60474  3.60474  0.00000 -0.20948
       4     O     4.21053  4.21053  0.00000 -0.42107
       5     C     3.07859  3.07859  0.00000 -0.15719
       6     H     0.41453  0.41453  0.00000  0.17093
       7     H     0.45306  0.45306  0.00000  0.09387
       8     H     0.43973  0.43973  0.00000  0.12054
       9     H     0.45548  0.45548  0.00000  0.08905

   Total alpha = 16.00000, Total beta = 16.00000, Total charge = -0.00000
