  ==> Input File <==

--------------------------------------------------------------------------
set {
	reference rhf
	basis cc-pvtz
}

set_num_threads( 4 )
memory 2 gb

molecule MOL {
0 1

H	 -3.642953	 0.223825	 0.000000
C	 -2.571844	 0.155001	 0.000000
C	 -1.957580	 -1.086132	 0.000000
C	 -1.807160	 1.303787	 0.000000
H	 -2.551493	 -1.979629	 0.000000
C	 -0.582719	 -1.174294	 0.000000
H	 -2.279934	 2.266806	 0.000000
C	 -0.427220	 1.213406	 0.000000
H	 -0.094904	 -2.127556	 0.000000
C	 0.196908	 -0.024061	 0.000000
H	 0.151409	 2.115254	 0.000000
C	 1.690041	 -0.173233	 0.000000
C	 2.355156	 -0.903517	 1.144101
O	 2.342048	 0.276643	 -0.887614
H	 2.143480	 -0.413371	 2.086932
H	 3.419845	 -0.910886	 0.973478
H	 1.992721	 -1.922388	 1.211364

	symmetry c1
}
set optking {
	frozen_dihedral = ("
		13 12 10 8
	")
}

ee = optimize('scf')
oeprop('DIPOLE', 'QUADRUPOLE', 'MULLIKEN_CHARGES')
f=open( 'psi4out.xyz', 'w' )
f.write( "17  " )
f.write( str(ee) + "\n" )
f.write( MOL.save_string_xyz() )
f.close()
--------------------------------------------------------------------------

    Molecular point group: c1
  Charge       = 0
  Multiplicity = 1
  Basis Set: CC-PVTZ
  Basis Set:
  @DF-RHF Final Energy:  -382.59862736869718
    Total Energy =                       -382.5986273686964978
    Molecular point group: c1
  Basis Set: CC-PVTZ
  Basis Set:
  Basis Set: CC-PVTZ
  Basis Set:
  @DF-RHF Final Energy:  -382.59845382541619
    Total Energy =                       -382.5984538254159588
  Basis Set: CC-PVTZ
  Basis Set:
  Basis Set: CC-PVTZ
  Basis Set:
  @DF-RHF Final Energy:  -382.59931396277051
    Total Energy =                       -382.5993139627706796
  Basis Set: CC-PVTZ
  Basis Set:
  Basis Set: CC-PVTZ
  Basis Set:
  @DF-RHF Final Energy:  -382.59998850845278
    Total Energy =                       -382.5999885084528387
  Basis Set: CC-PVTZ
  Basis Set:
  Basis Set: CC-PVTZ
  Basis Set:
  @DF-RHF Final Energy:  -382.60000392032367
    Total Energy =                       -382.6000039203240704
  Basis Set: CC-PVTZ
  Basis Set:
  Basis Set: CC-PVTZ
  Basis Set:
  @DF-RHF Final Energy:  -382.60001168583284
    Total Energy =                       -382.6000116858330102
  Basis Set: CC-PVTZ
  Basis Set:
  Basis Set: CC-PVTZ
  Basis Set:
  @DF-RHF Final Energy:  -382.60001303918318
    Total Energy =                       -382.6000130391830680
  Basis Set: CC-PVTZ
  Basis Set:
  Charge       = 0
  Multiplicity = 1
  Basis Set: CC-PVTZ
  Basis Set:

    Orbital Energies (a.u.)
    -----------------------

    Doubly Occupied:

       1A    -20.545397     2A    -11.329594     3A    -11.246033
       4A    -11.243898     5A    -11.240797     6A    -11.240483
       7A    -11.239327     8A    -11.238124     9A    -11.230750
      10A     -1.405585    11A     -1.171567    12A     -1.054217
      13A     -1.030449    14A     -1.000591    15A     -0.863411
      16A     -0.841223    17A     -0.765080    18A     -0.708328
      19A     -0.664482    20A     -0.650246    21A     -0.628230
      22A     -0.623368    23A     -0.603277    24A     -0.592427
      25A     -0.562760    26A     -0.528697    27A     -0.518195
      28A     -0.508110    29A     -0.496591    30A     -0.413888
      31A     -0.349359    32A     -0.347356

  @DF-RHF Final Energy:  -382.60001325090980

   => Energetics <=

    Nuclear Repulsion Energy =            403.9714027663349043
    One-Electron Energy =               -1319.3791507803989589
    Two-Electron Energy =                 532.8077347631542580
    DFT Exchange-Correlation Energy =       0.0000000000000000
    Empirical Dispersion Energy =           0.0000000000000000
    PCM Polarization Energy =               0.0000000000000000
    EFP Energy =                            0.0000000000000000
    Total Energy =                       -382.6000132509097966
    Molecular point group: c1
  Basis Set: CC-PVTZ
  Basis Set:

  -Total Gradient:
     Atom            X                  Y                   Z
    ------   -----------------  -----------------  -----------------
       1        0.000001421884     0.000002451304    -0.000000299981
       2       -0.000009951017    -0.000066192383    -0.000020852907
       3       -0.000053856656     0.000034593651     0.000028840102
       4        0.000069265779     0.000023371467     0.000013119074
       5        0.000002295029    -0.000002219407     0.000000540152
       6        0.000057447763     0.000030566370    -0.000040411287
       7       -0.000002312174     0.000000138244     0.000002011433
       8       -0.000086096325    -0.000029408610     0.003697303167
       9       -0.000002778135    -0.000006871517    -0.000005784167
      10        0.000109833762     0.001389335037    -0.004485613353
      11        0.000003057308    -0.000000314467    -0.000021157397
      12       -0.000230472318    -0.004300991603    -0.000923649792
      13        0.000139208497     0.002919883557     0.001765282525
      14        0.000000339609     0.000029903914     0.000010169705
      15       -0.000008394511    -0.000005218717     0.000004161325
      16       -0.000003027396    -0.000012152030    -0.000011531205
      17        0.000014018899    -0.000006874807    -0.000012127392

  **** Optimization is complete! (in 8 steps) ****
    Final optimized geometry and variables:
    Molecular point group: c1

    Geometry (in Angstrom), charge = 0, multiplicity = 1:

    H           -3.631898075540     0.287896476835    -0.000030653225
    C           -2.562440213934     0.200805352110    -0.015823760922
    C           -1.970311650488    -1.047216763599    -0.033139903087
    C           -1.774855223931     1.337308329592    -0.017375497373
    H           -2.577850250830    -1.931687477937    -0.035582940673
    C           -0.592825570808    -1.159188837182    -0.039061902818
    H           -2.231534256625     2.308147906405     0.000716383367
    C           -0.398995954972     1.226108201108    -0.048515712510
    H           -0.142203570536    -2.133582888072    -0.042022170334
    C            0.199163550415    -0.023616820291    -0.065720010785
    H            0.214938722245     2.105413823887    -0.070356534286
    C            1.700744810037    -0.106925588211    -0.054245013550
    C            2.344510412856    -0.835904624533     1.100681222269
    O            2.348123705031     0.456617016221    -0.874403228002
    H            2.098813240532    -0.315737536808     2.020009624795
    H            3.415067744779    -0.856358259364     0.965662243251
    H            1.963718057462    -1.845439104055     1.194458749989

  Mulliken Charges: (a.u.)
   Center  Symbol    Alpha    Beta     Spin     Total
       1     H     0.42113  0.42113  0.00000  0.15774
       2     C     3.08172  3.08172  0.00000 -0.16345
       3     C     3.06722  3.06722  0.00000 -0.13443
       4     C     3.06535  3.06535  0.00000 -0.13070
       5     H     0.42162  0.42162  0.00000  0.15675
       6     C     3.09667  3.09667  0.00000 -0.19334
       7     H     0.42114  0.42114  0.00000  0.15771
       8     C     3.09085  3.09085  0.00000 -0.18171
       9     H     0.42356  0.42356  0.00000  0.15288
      10     C     2.96573  2.96573  0.00000  0.06853
      11     H     0.41593  0.41593  0.00000  0.16814
      12     C     2.87469  2.87469  0.00000  0.25062
      13     C     3.15164  3.15164  0.00000 -0.30329
      14     O     4.16987  4.16987  0.00000 -0.33974
      15     H     0.44609  0.44609  0.00000  0.10781
      16     H     0.43603  0.43603  0.00000  0.12793
      17     H     0.45074  0.45074  0.00000  0.09852

   Total alpha = 32.00000, Total beta = 32.00000, Total charge = -0.00000
