  ==> Input File <==

--------------------------------------------------------------------------
set {
	reference rhf
	basis 6-31G*
}

set_num_threads( 4 )
memory 2 gb

molecule MOL {
0 1

H	 -1.417895	 -0.396030	 -1.068092
N	 -1.172117	 -0.314371	 -0.100254
C	 -0.024542	 0.565565	 0.069209
H	 -1.973538	 0.059573	 0.371943
C	 1.271298	 -0.229563	 -0.014192
H	 -0.049409	 1.297310	 -0.731596
H	 -0.046881	 1.125219	 1.006750
H	 1.332152	 -0.753033	 -0.961461
H	 2.134169	 0.422483	 0.080702
H	 1.326077	 -0.968298	 0.781395

	symmetry c1
}
set optking {
	frozen_dihedral = ("
		1 2 3 6
	")
}

ee = optimize('scf')
oeprop('DIPOLE', 'QUADRUPOLE', 'MULLIKEN_CHARGES')
f=open( 'psi4out.xyz', 'w' )
f.write( "10  " )
f.write( str(ee) + "\n" )
f.write( MOL.save_string_xyz() )
f.close()
--------------------------------------------------------------------------

    Molecular point group: c1
  Charge       = 0
  Multiplicity = 1
  Basis Set: 6-31G*
  Basis Set:
  @DF-RHF Final Energy:  -134.24422898852021
    Total Energy =                       -134.2442289885203763
    Molecular point group: c1
  Basis Set: 6-31G*
  Basis Set:
  Basis Set: 6-31G*
  Basis Set:
  @DF-RHF Final Energy:  -134.24570440753473
    Total Energy =                       -134.2457044075347596
  Basis Set: 6-31G*
  Basis Set:
  Basis Set: 6-31G*
  Basis Set:
  @DF-RHF Final Energy:  -134.24598864335871
    Total Energy =                       -134.2459886433587428
  Basis Set: 6-31G*
  Basis Set:
  Basis Set: 6-31G*
  Basis Set:
  @DF-RHF Final Energy:  -134.24599230530407
    Total Energy =                       -134.2459923053041280
  Basis Set: 6-31G*
  Basis Set:
  Charge       = 0
  Multiplicity = 1
  Basis Set: 6-31G*
  Basis Set:

    Orbital Energies (a.u.)
    -----------------------

    Doubly Occupied:

       1A    -15.533332     2A    -11.243177     3A    -11.201641
       4A     -1.175195     5A     -0.985880     6A     -0.820700
       7A     -0.668027     8A     -0.625907     9A     -0.572738
      10A     -0.518294    11A     -0.510019    12A     -0.481238
      13A     -0.382961

  @DF-RHF Final Energy:  -134.24599301935720

   => Energetics <=

    Nuclear Repulsion Energy =             83.1504374798354604
    One-Electron Energy =                -345.3546419675830066
    Two-Electron Energy =                 127.9582114683902887
    DFT Exchange-Correlation Energy =       0.0000000000000000
    Empirical Dispersion Energy =           0.0000000000000000
    PCM Polarization Energy =               0.0000000000000000
    EFP Energy =                            0.0000000000000000
    Total Energy =                       -134.2459930193572859
    Molecular point group: c1
  Basis Set: 6-31G*
  Basis Set:

  -Total Gradient:
     Atom            X                  Y                   Z
    ------   -----------------  -----------------  -----------------
       1       -0.001932973059     0.002486630349     0.000327920107
       2        0.002862482682    -0.003551354451    -0.000900208506
       3       -0.002488972895     0.002834358772     0.002275472009
       4       -0.000028671878    -0.000013872727     0.000007184265
       5        0.000001014526     0.000044996630     0.000011038746
       6        0.001581039499    -0.001814492449    -0.001725190351
       7        0.000018526738     0.000002194733     0.000009746596
       8       -0.000009535992     0.000005272334    -0.000002339788
       9        0.000007125724    -0.000003401484    -0.000004331135
      10       -0.000010035344     0.000009668292     0.000000708057

  **** Optimization is complete! (in 5 steps) ****
    Final optimized geometry and variables:
    Molecular point group: c1

    Geometry (in Angstrom), charge = 0, multiplicity = 1:

    H           -1.445436453606    -0.418951703156    -1.014611954466
    N           -1.173224597323    -0.329191072226    -0.054732068650
    C           -0.020378794610     0.559600125834     0.073194529504
    H           -1.967016028980     0.055642960036     0.419402278115
    C            1.278829165808    -0.235533212059     0.014513217942
    H            0.003787536307     1.323212897012    -0.704633024582
    H           -0.085814120633     1.073808697923     1.025823135870
    H            1.362849015660    -0.764343814321    -0.930570871314
    H            2.141935035737     0.417619421161     0.111031536058
    H            1.306735537370    -0.971701620312     0.809704309980

  Mulliken Charges: (a.u.)
   Center  Symbol    Alpha    Beta     Spin     Total
       1     H     0.33397  0.33397  0.00000  0.33206
       2     N     3.91973  3.91973  0.00000 -0.83946
       3     C     3.06870  3.06870  0.00000 -0.13740
       4     H     0.33246  0.33246  0.00000  0.33508
       5     C     3.22870  3.22870  0.00000 -0.45740
       6     H     0.43075  0.43075  0.00000  0.13850
       7     H     0.42132  0.42132  0.00000  0.15736
       8     H     0.42344  0.42344  0.00000  0.15312
       9     H     0.42635  0.42635  0.00000  0.14730
      10     H     0.41458  0.41458  0.00000  0.17084

   Total alpha = 13.00000, Total beta = 13.00000, Total charge = -0.00000
