                              Psi4 1.0.54 Driver

  ==> Input File <==

--------------------------------------------------------------------------
set {
	reference rhf
	basis cc-pvtz
}

set_num_threads( 4 )
memory 2 gb

molecule MOL {
0 1

O	 -2.081319	 -0.951530	 -0.502732
N	 -1.613558	 0.006676	 0.014756
C	 -0.329345	 -0.171618	 0.743966
O	 -2.068523	 1.100482	 -0.024385
C	 0.835904	 0.041968	 -0.213982
H	 -0.346048	 -1.174374	 1.137184
H	 -0.333613	 0.555559	 1.538590
C	 2.177039	 -0.130175	 0.494460
H	 0.754456	 -0.665923	 -1.030569
H	 0.765464	 1.037260	 -0.637266
C	 3.351371	 -0.142194	 -0.477795
H	 2.168851	 -1.055500	 1.062916
H	 2.311188	 0.672717	 1.213331
H	 3.261753	 -0.955981	 -1.188721
H	 3.403738	 0.784226	 -1.038793
H	 4.289447	 -0.264177	 0.049742

	symmetry c1
}
set optking {
	frozen_dihedral = ("
		11 8 5 9
	")
}

ee,wfn = optimize('scf', return_wfn=True)
oeprop( wfn, 'DIPOLE', 'QUADRUPOLE', 'MULLIKEN_CHARGES')
f=open( 'psi4out.xyz', 'w' )
f.write( "16  " )
f.write( str(ee) + "\n" )
f.write( MOL.save_string_xyz() )
f.close()
--------------------------------------------------------------------------

    Molecular point group: c1
  Charge       = 0
  Multiplicity = 1
  Basis Set: CC-PVTZ
  Basis Set:
  @DF-RHF Final Energy:  -360.90922353002588
    Total Energy =                       -360.9092235300261109
    Molecular point group: c1
  Basis Set: CC-PVTZ
  Basis Set:
  Basis Set: CC-PVTZ
  Basis Set:
  @DF-RHF Final Energy:  -360.90925303615899
    Total Energy =                       -360.9092530361586455
  Basis Set: CC-PVTZ
  Basis Set:
  Basis Set: CC-PVTZ
  Basis Set:
  @DF-RHF Final Energy:  -360.90866345941186
    Total Energy =                       -360.9086634594116276
  Basis Set: CC-PVTZ
  Basis Set:
  Basis Set: CC-PVTZ
  Basis Set:
  @DF-RHF Final Energy:  -360.90925646755056
    Total Energy =                       -360.9092564675507333
  Basis Set: CC-PVTZ
  Basis Set:
  Basis Set: CC-PVTZ
  Basis Set:
  @DF-RHF Final Energy:  -360.90926214979305
    Total Energy =                       -360.9092621497933351
  Basis Set: CC-PVTZ
  Basis Set:
  Basis Set: CC-PVTZ
  Basis Set:
  @DF-RHF Final Energy:  -360.90926573278801
    Total Energy =                       -360.9092657327879579
  Basis Set: CC-PVTZ
  Basis Set:
  Charge       = 0
  Multiplicity = 1
  Basis Set: CC-PVTZ
  Basis Set:

    Orbital Energies (a.u.)
    -----------------------

    Doubly Occupied:

       1A    -20.589706     2A    -20.589614     3A    -15.836243
       4A    -11.296425     5A    -11.250619     6A    -11.241901
       7A    -11.225978     8A     -1.635243     9A     -1.419525
      10A     -1.136641    11A     -1.060178    12A     -0.948752
      13A     -0.843528    14A     -0.829392    15A     -0.757891
      16A     -0.737903    17A     -0.728164    18A     -0.678845
      19A     -0.616122    20A     -0.607976    21A     -0.567935
      22A     -0.542047    23A     -0.517448    24A     -0.504518
      25A     -0.496207    26A     -0.486066    27A     -0.469988
      28A     -0.452154

  @DF-RHF Final Energy:  -360.90926581799943

   => Energetics <=

    Nuclear Repulsion Energy =            312.9984211159536471
    One-Electron Energy =               -1111.6813582065560695
    Two-Electron Energy =                 437.7736712726031669
    DFT Exchange-Correlation Energy =       0.0000000000000000
    Empirical Dispersion Energy =           0.0000000000000000
    PCM Polarization Energy =               0.0000000000000000
    EFP Energy =                            0.0000000000000000
    Total Energy =                       -360.9092658179992554
    Molecular point group: c1
  Basis Set: CC-PVTZ
  Basis Set:

  -Total Gradient:
     Atom            X                  Y                   Z
    ------   -----------------  -----------------  -----------------
       1       -0.000023343149     0.000070286714     0.000001152514
       2        0.000037817892    -0.000049119873     0.000014508436
       3       -0.000010986566     0.000000085060     0.000003367316
       4       -0.000029168417    -0.000028322014    -0.000027985172
       5       -0.000895778997    -0.001907417000     0.001309964352
       6        0.000006570170     0.000004134400     0.000000890807
       7        0.000013510919    -0.000003735189     0.000000361162
       8        0.000290384540     0.001990874545    -0.000119809001
       9        0.000701936488     0.001162438240    -0.001071022596
      10       -0.000002068129     0.000001152925    -0.000001859977
      11       -0.000083111774    -0.001241221160    -0.000109417224
      12       -0.000001196491     0.000000650684     0.000001655444
      13       -0.000002616327     0.000000648224    -0.000003504943
      14        0.000001829304     0.000003211837     0.000003340717
      15        0.000001440007    -0.000004694877     0.000001100086
      16       -0.000005219477     0.000001027492    -0.000002741920

  **** Optimization is complete! (in 7 steps) ****
    Final optimized geometry and variables:
    Molecular point group: c1

    Geometry (in Angstrom), charge = 0, multiplicity = 1:

    O           -2.093073319215    -0.905387771713    -0.499760664988
    N           -1.612777568260     0.044159780922     0.022318767112
    C           -0.328582223269    -0.153388154261     0.746628865168
    O           -2.055594632124     1.143223221029    -0.008436342091
    C            0.836328915319     0.052871935958    -0.212249055760
    H           -0.355571396919    -1.158023296774     1.134082548750
    H           -0.321971178992     0.569175036053     1.545659239732
    C            2.180069906985    -0.099877044933     0.497276826972
    H            0.762389094797    -0.657113599108    -1.027644433519
    H            0.762162296596     1.043250804080    -0.646948983096
    C            3.354985537651    -0.098660239846    -0.474361993280
    H            2.187650023846    -1.028651798778     1.060859669542
    H            2.299599130970     0.700401387006     1.220917752736
    H            3.283072481449    -0.925120130128    -1.172248632426
    H            3.387581899426     0.819891852820    -1.050023010770
    H            4.295345278065    -0.191224064198     0.055084531325

  Mulliken Charges: (a.u.)
   Center  Symbol    Alpha    Beta     Spin     Total
       1     O     4.17413  4.17413  0.00000 -0.34825
       2     N     3.27574  3.27574  0.00000  0.44851
       3     C     3.03977  3.03977  0.00000 -0.07954
       4     O     4.17405  4.17405  0.00000 -0.34810
       5     C     3.10159  3.10159  0.00000 -0.20319
       6     H     0.43371  0.43371  0.00000  0.13258
       7     H     0.43413  0.43413  0.00000  0.13174
       8     C     3.09333  3.09333  0.00000 -0.18666
       9     H     0.43835  0.43835  0.00000  0.12330
      10     H     0.43755  0.43755  0.00000  0.12491
      11     C     3.14815  3.14815  0.00000 -0.29630
      12     H     0.45211  0.45211  0.00000  0.09578
      13     H     0.44874  0.44874  0.00000  0.10252
      14     H     0.45169  0.45169  0.00000  0.09661
      15     H     0.45171  0.45171  0.00000  0.09658
      16     H     0.44524  0.44524  0.00000  0.10951

   Total alpha = 28.00000, Total beta = 28.00000, Total charge = -0.00000

*** Psi4 exiting successfully. Buy a developer a beer!
