  ==> Input File <==

--------------------------------------------------------------------------
set {
	reference rhf
	basis 6-31G*
}

set_num_threads( 4 )
memory 2 gb

molecule MOL {
0 1

H	 2.591676	 2.013956	 0.335017
O	 3.341076	 1.666752	 -0.126416
C	 3.569581	 0.339145	 0.272707
C	 4.894027	 -0.221311	 -0.233711
H	 3.568484	 0.352885	 1.355058
H	 2.746455	 -0.300761	 -0.043146
C	 4.982306	 -0.328440	 -1.758047
H	 5.698846	 0.409283	 0.135051
H	 5.035794	 -1.206771	 0.206898
C	 6.301599	 -0.944512	 -2.232115
H	 4.866771	 0.660505	 -2.192794
H	 4.153161	 -0.932242	 -2.127213
C	 6.406972	 -1.153474	 -3.747230
H	 7.128657	 -0.321514	 -1.896413
H	 6.429709	 -1.907413	 -1.742106
C	 6.440458	 0.134456	 -4.574631
H	 7.312745	 -1.720527	 -3.951783
H	 5.579019	 -1.776268	 -4.082579
C	 6.652161	 -0.121900	 -6.068251
H	 7.237610	 0.777949	 -4.205070
H	 5.514740	 0.689074	 -4.441413
C	 6.679570	 1.161683	 -6.897303
H	 7.584498	 -0.663775	 -6.211805
H	 5.862000	 -0.772620	 -6.437159
H	 7.480768	 1.820252	 -6.573893
H	 6.833004	 0.947041	 -7.950404
H	 5.745664	 1.708984	 -6.804331

	symmetry c1
}
set optking {
	frozen_dihedral = ("
		4 3 2 1
	")
}

ee = optimize('scf')
oeprop('DIPOLE', 'QUADRUPOLE', 'MULLIKEN_CHARGES')
f=open( 'psi4out.xyz', 'w' )
f.write( "27  " )
f.write( str(ee) + "\n" )
f.write( MOL.save_string_xyz() )
f.close()
--------------------------------------------------------------------------

    Molecular point group: c1
  Charge       = 0
  Multiplicity = 1
  Basis Set: 6-31G*
  Basis Set:
  @DF-RHF Final Energy:  -388.28026599071649
    Total Energy =                       -388.2802659907160887
    Molecular point group: c1
  Basis Set: 6-31G*
  Basis Set:
  Basis Set: 6-31G*
  Basis Set:
  @DF-RHF Final Energy:  -388.28177364029921
    Total Energy =                       -388.2817736402988658
  Basis Set: 6-31G*
  Basis Set:
  Basis Set: 6-31G*
  Basis Set:
  @DF-RHF Final Energy:  -388.28220134948617
    Total Energy =                       -388.2822013494868543
  Basis Set: 6-31G*
  Basis Set:
  Basis Set: 6-31G*
  Basis Set:
  @DF-RHF Final Energy:  -388.28220256972844
    Total Energy =                       -388.2822025697282697
  Basis Set: 6-31G*
  Basis Set:
  Basis Set: 6-31G*
  Basis Set:
  @DF-RHF Final Energy:  -388.28220944229537
    Total Energy =                       -388.2822094422949704
  Basis Set: 6-31G*
  Basis Set:
  Charge       = 0
  Multiplicity = 1
  Basis Set: 6-31G*
  Basis Set:

    Orbital Energies (a.u.)
    -----------------------

    Doubly Occupied:

       1A    -20.552861     2A    -11.267810     3A    -11.211633
       4A    -11.210213     5A    -11.208655     6A    -11.208083
       7A    -11.206669     8A    -11.205330     9A    -11.204229
      10A     -1.359658    11A     -1.087310    12A     -1.055635
      13A     -1.007315    14A     -0.942285    15A     -0.878758
      16A     -0.810502    17A     -0.793657    18A     -0.770345
      19A     -0.704335    20A     -0.643872    21A     -0.637972
      22A     -0.614347    23A     -0.586310    24A     -0.578522
      25A     -0.570154    26A     -0.545198    27A     -0.536898
      28A     -0.516151    29A     -0.504841    30A     -0.493413
      31A     -0.475744    32A     -0.471195    33A     -0.459139
      34A     -0.452585    35A     -0.440369    36A     -0.435578
      37A     -0.426070

  @DF-RHF Final Energy:  -388.28220958124359

   => Energetics <=

    Nuclear Repulsion Energy =            460.1202230718103010
    One-Electron Energy =               -1438.6575778511635235
    Two-Electron Energy =                 590.2551451981099717
    DFT Exchange-Correlation Energy =       0.0000000000000000
    Empirical Dispersion Energy =           0.0000000000000000
    PCM Polarization Energy =               0.0000000000000000
    EFP Energy =                            0.0000000000000000
    Total Energy =                       -388.2822095812432508
    Molecular point group: c1
  Basis Set: 6-31G*
  Basis Set:

  -Total Gradient:
     Atom            X                  Y                   Z
    ------   -----------------  -----------------  -----------------
       1        0.000664133571     0.000255670010     0.000772058709
       2       -0.000669154353    -0.000490213365    -0.000694597799
       3       -0.000146710801    -0.000126963081    -0.000485191210
       4        0.000257083922     0.000197653963     0.000523320299
       5       -0.000041577928     0.000086376801    -0.000055934472
       6        0.000047201822     0.000057834962    -0.000047389990
       7       -0.000075359317    -0.000126771934     0.000025172635
       8       -0.000041044463     0.000039246817     0.000047013419
       9       -0.000021524327     0.000018114162    -0.000021791047
      10        0.000042724717     0.000075128871    -0.000025100410
      11        0.000016373866     0.000012476571    -0.000005669183
      12       -0.000033545595    -0.000022961744    -0.000011147585
      13       -0.000010410179     0.000013246377    -0.000002194637
      14       -0.000000235580     0.000012099379     0.000005302505
      15        0.000015882010     0.000012026214    -0.000028581164
      16        0.000018004799    -0.000007327761    -0.000015455812
      17       -0.000019809956    -0.000024140452     0.000003803827
      18       -0.000029705047     0.000022436961     0.000016956348
      19        0.000025343805     0.000001036466     0.000006177061
      20       -0.000005728744     0.000013399819     0.000015362421
      21        0.000004010377    -0.000020866044    -0.000025721619
      22        0.000006613630     0.000000867485    -0.000000122346
      23        0.000000306305    -0.000003141080    -0.000003713619
      24        0.000000283673     0.000004146154     0.000005780548
      25       -0.000000023069     0.000000135283    -0.000001637989
      26       -0.000000958061     0.000000013924     0.000003234513
      27       -0.000002175073     0.000000475242     0.000000066599

  **** Optimization is complete! (in 6 steps) ****
    Final optimized geometry and variables:
    Molecular point group: c1

    Geometry (in Angstrom), charge = 0, multiplicity = 1:

    H           -2.708836111634     1.994903666765     2.992432533774
    O           -1.978249985084     1.563789940627     2.573100729548
    C           -1.872069052921     0.244644926105     3.046665508995
    C           -0.561175124147    -0.347012962634     2.557596202365
    H           -1.894240553412     0.229765533125     4.134719535825
    H           -2.709642698754    -0.355170940091     2.692993127657
    C           -0.469034012513    -0.451163267667     1.033978311691
    H            0.251370755159     0.268038622108     2.935344648558
    H           -0.446305619397    -1.333764556798     3.002444274930
    C            0.866709720735    -1.035281658419     0.566376116928
    H           -0.621414827323     0.533403145097     0.607918464337
    H           -1.281919283708    -1.078239497442     0.668825960926
    C            0.979382961052    -1.244803546488    -0.948207928526
    H            1.678002686766    -0.390233356895     0.900101004745
    H            1.021448259230    -1.994027090416     1.058091766455
    C            0.989471903078     0.043380608089    -1.775642724151
    H            1.895623492323    -1.795593105479    -1.151885624628
    H            0.162845640150    -1.882344750648    -1.283992987232
    C            1.205816731839    -0.208954140138    -3.269259061427
    H            1.775301106444     0.700745075933    -1.406025260291
    H            0.054399277121     0.580882168891    -1.640991543213
    C            1.212784488447     1.075328509065    -4.097740195396
    H            2.146706455119    -0.735992098483    -3.413440910467
    H            0.426013581714    -0.871773319893    -3.638844808491
    H            2.003775132135     1.746111981188    -3.774155791446
    H            1.369010536712     0.864011470783    -5.151253022560
    H            0.270602093382     1.607885553811    -4.003366165223

  Mulliken Charges: (a.u.)
   Center  Symbol    Alpha    Beta     Spin     Total
       1     H     0.28044  0.28044  0.00000  0.43912
       2     O     4.37001  4.37001  0.00000 -0.74003
       3     C     2.99737  2.99737  0.00000  0.00526
       4     C     3.15923  3.15923  0.00000 -0.31846
       5     H     0.43003  0.43003  0.00000  0.13995
       6     H     0.43181  0.43181  0.00000  0.13639
       7     C     3.15712  3.15712  0.00000 -0.31424
       8     H     0.41584  0.41584  0.00000  0.16832
       9     H     0.42447  0.42447  0.00000  0.15107
      10     C     3.15340  3.15340  0.00000 -0.30679
      11     H     0.40453  0.40453  0.00000  0.19094
      12     H     0.42745  0.42745  0.00000  0.14510
      13     C     3.15273  3.15273  0.00000 -0.30547
      14     H     0.42356  0.42356  0.00000  0.15289
      15     H     0.42454  0.42454  0.00000  0.15092
      16     C     3.15270  3.15270  0.00000 -0.30541
      17     H     0.42320  0.42320  0.00000  0.15360
      18     H     0.42489  0.42489  0.00000  0.15022
      19     C     3.15099  3.15099  0.00000 -0.30199
      20     H     0.42455  0.42455  0.00000  0.15089
      21     H     0.42026  0.42026  0.00000  0.15948
      22     C     3.23897  3.23897  0.00000 -0.47794
      23     H     0.42400  0.42400  0.00000  0.15199
      24     H     0.42379  0.42379  0.00000  0.15242
      25     H     0.42201  0.42201  0.00000  0.15598
      26     H     0.42041  0.42041  0.00000  0.15918
      27     H     0.42170  0.42170  0.00000  0.15660

   Total alpha = 37.00000, Total beta = 37.00000, Total charge = -0.00000
