  ==> Input File <==

--------------------------------------------------------------------------
set {
	reference rhf
	basis 6-31G*
}

set_num_threads( 4 )
memory 2 gb

molecule MOL {
0 1

O	 1.771044	 1.428934	 -0.350490
C	 1.484543	 0.502234	 -1.037703
C	 0.166042	 -0.231939	 -1.017402
O	 2.309674	 -0.016465	 -1.938396
C	 -0.823008	 0.326187	 0.001381
H	 -0.242000	 -0.194371	 -2.023783
H	 0.380722	 -1.279558	 -0.824721
C	 -2.149452	 -0.435131	 -0.000098
H	 -0.999910	 1.376042	 -0.210040
H	 -0.377096	 0.288738	 0.990354
C	 -3.368779	 0.488503	 -0.000883
H	 -2.193746	 -1.087250	 -0.871175
H	 -2.195311	 -1.087803	 0.870418
C	 -4.693822	 -0.272754	 -0.001129
H	 -3.325798	 1.139422	 -0.871284
H	 -3.326423	 1.139959	 0.869145
H	 -4.781274	 -0.907928	 -0.878124
H	 -5.538651	 0.408946	 -0.001420
H	 -4.781694	 -0.907783	 0.875984
C	 3.586252	 0.583681	 -2.061406
H	 3.492302	 1.621802	 -2.346022
H	 4.099801	 0.029718	 -2.831645
H	 4.128193	 0.518801	 -1.128884

	symmetry c1
}
set optking {
	frozen_dihedral = ("
		9 5 8 12
	")
}

ee = optimize('scf')
oeprop('DIPOLE', 'QUADRUPOLE', 'MULLIKEN_CHARGES')
f=open( 'psi4out.xyz', 'w' )
f.write( "23  " )
f.write( str(ee) + "\n" )
f.write( MOL.save_string_xyz() )
f.close()
--------------------------------------------------------------------------

    Molecular point group: c1
  Charge       = 0
  Multiplicity = 1
  Basis Set: 6-31G*
  Basis Set:
  @DF-RHF Final Energy:  -422.97130285853876
    Total Energy =                       -422.9713028585388201
    Molecular point group: c1
  Basis Set: 6-31G*
  Basis Set:
  Basis Set: 6-31G*
  Basis Set:
  @DF-RHF Final Energy:  -422.97154941174540
    Total Energy =                       -422.9715494117456274
  Basis Set: 6-31G*
  Basis Set:
  Basis Set: 6-31G*
  Basis Set:
  @DF-RHF Final Energy:  -422.97110687846487
    Total Energy =                       -422.9711068784642976
  Basis Set: 6-31G*
  Basis Set:
  Basis Set: 6-31G*
  Basis Set:
  @DF-RHF Final Energy:  -422.97163320770517
    Total Energy =                       -422.9716332077051675
  Basis Set: 6-31G*
  Basis Set:
  Basis Set: 6-31G*
  Basis Set:
  @DF-RHF Final Energy:  -422.97162765856126
    Total Energy =                       -422.9716276585611467
  Basis Set: 6-31G*
  Basis Set:
  Basis Set: 6-31G*
  Basis Set:
  @DF-RHF Final Energy:  -422.97164370805979
    Total Energy =                       -422.9716437080596734
  Basis Set: 6-31G*
  Basis Set:
  Charge       = 0
  Multiplicity = 1
  Basis Set: 6-31G*
  Basis Set:

    Orbital Energies (a.u.)
    -----------------------

    Doubly Occupied:

       1A    -20.603640     2A    -20.545531     3A    -11.372142
       4A    -11.280860     5A    -11.236009     6A    -11.218790
       7A    -11.217649     8A    -11.217059     9A    -11.209714
      10A     -1.469328    11A     -1.362791    12A     -1.091288
      13A     -1.043729    14A     -0.986385    15A     -0.931696
      16A     -0.844875    17A     -0.795663    18A     -0.767565
      19A     -0.699109    20A     -0.682624    21A     -0.672132
      22A     -0.641889    23A     -0.614858    24A     -0.598984
      25A     -0.572684    26A     -0.559146    27A     -0.555073
      28A     -0.527049    29A     -0.521499    30A     -0.503330
      31A     -0.489010    32A     -0.470606    33A     -0.463726
      34A     -0.459191    35A     -0.453048    36A     -0.435247

  @DF-RHF Final Energy:  -422.97164417195791

   => Energetics <=

    Nuclear Repulsion Energy =            452.4446733800225502
    One-Electron Energy =               -1472.6047922240350090
    Two-Electron Energy =                 597.1884746720543262
    DFT Exchange-Correlation Energy =       0.0000000000000000
    Empirical Dispersion Energy =           0.0000000000000000
    PCM Polarization Energy =               0.0000000000000000
    EFP Energy =                            0.0000000000000000
    Total Energy =                       -422.9716441719581326
    Molecular point group: c1
  Basis Set: 6-31G*
  Basis Set:

  -Total Gradient:
     Atom            X                  Y                   Z
    ------   -----------------  -----------------  -----------------
       1        0.000003411094     0.000002112116    -0.000010058798
       2       -0.000001019121    -0.000015650358     0.000022487183
       3       -0.000016614019     0.000006111691    -0.000010053926
       4        0.000007105058     0.000012612574    -0.000005131060
       5        0.000682199383    -0.001262023335    -0.003465188465
       6        0.000000489523     0.000002755034     0.000006196894
       7       -0.000004849690     0.000001440245     0.000001262787
       8       -0.001727935310     0.003025644952    -0.001288700938
       9       -0.000305009761     0.000555087954     0.003083970435
      10        0.000000728322    -0.000008703814     0.000012544257
      11        0.000009841911     0.000003856426     0.000000092376
      12        0.001351663274    -0.002313859370     0.001638602020
      13       -0.000002838870     0.000000164039     0.000010874367
      14       -0.000000909358    -0.000000593822    -0.000000084269
      15        0.000000979730    -0.000003558593     0.000003593300
      16        0.000003041396    -0.000003687141    -0.000002162575
      17        0.000003105785     0.000000977293     0.000003927463
      18       -0.000005996914    -0.000001757696    -0.000002603090
      19       -0.000001620428     0.000002131030     0.000000852392
      20        0.000003600485    -0.000005898786     0.000002046096
      21       -0.000001353951     0.000000580683    -0.000000479773
      22        0.000001005963     0.000001402553    -0.000000829599
      23        0.000000975499     0.000000856322    -0.000001157078

  **** Optimization is complete! (in 7 steps) ****
    Final optimized geometry and variables:
    Molecular point group: c1

    Geometry (in Angstrom), charge = 0, multiplicity = 1:

    O            1.931033313238     1.156852301442     0.378595282838
    C            1.650247823397     0.234845529185    -0.317285717781
    C            0.325116467309    -0.487601131259    -0.325835313732
    O            2.489725896504    -0.290394274729    -1.200771805655
    C           -0.679826651072     0.075025119487     0.673841192508
    H           -0.063219729516    -0.443456577430    -1.339668897984
    H            0.525513837980    -1.537894060905    -0.131787332334
    C           -2.016538757774    -0.694871069029     0.681682169995
    H           -0.851541205698     1.126399183869     0.467484301763
    H           -0.237560966054     0.055101224586     1.663978018943
    C           -3.245621113832     0.213609695361     0.731327865765
    H           -2.080015483306    -1.348766694751    -0.186244772303
    H           -2.039230864145    -1.364652803010     1.538556449691
    C           -4.560573683778    -0.561877268199     0.788756670076
    H           -3.245316124865     0.863717892533    -0.140999960328
    H           -3.172013782448     0.867325799690     1.597733845338
    H           -4.675723548654    -1.203723973786    -0.080309529909
    H           -5.412509519873     0.110268655983     0.818317941749
    H           -4.605930413088    -1.192313597965     1.672322556333
    C            3.774171524569     0.298046626657    -1.295481802376
    H            3.695984162843     1.337344161774    -1.580556191396
    H            4.299000507779    -0.259666133261    -2.055398964753
    H            4.295353559751     0.226888652364    -0.351648187113

  Mulliken Charges: (a.u.)
   Center  Symbol    Alpha    Beta     Spin     Total
       1     O     4.28596  4.28596  0.00000 -0.57193
       2     C     2.60551  2.60551  0.00000  0.78898
       3     C     3.20957  3.20957  0.00000 -0.41914
       4     O     4.30737  4.30737  0.00000 -0.61474
       5     C     3.15593  3.15593  0.00000 -0.31186
       6     H     0.40049  0.40049  0.00000  0.19902
       7     H     0.40022  0.40022  0.00000  0.19957
       8     C     3.15621  3.15621  0.00000 -0.31243
       9     H     0.40962  0.40962  0.00000  0.18076
      10     H     0.40940  0.40940  0.00000  0.18120
      11     C     3.15301  3.15301  0.00000 -0.30602
      12     H     0.42281  0.42281  0.00000  0.15437
      13     H     0.42015  0.42015  0.00000  0.15971
      14     C     3.24038  3.24038  0.00000 -0.48077
      15     H     0.42238  0.42238  0.00000  0.15524
      16     H     0.42024  0.42024  0.00000  0.15952
      17     H     0.42191  0.42191  0.00000  0.15618
      18     H     0.41848  0.41848  0.00000  0.16304
      19     H     0.42131  0.42131  0.00000  0.15738
      20     C     3.09246  3.09246  0.00000 -0.18492
      21     H     0.40907  0.40907  0.00000  0.18186
      22     H     0.40845  0.40845  0.00000  0.18311
      23     H     0.40907  0.40907  0.00000  0.18186

   Total alpha = 36.00000, Total beta = 36.00000, Total charge = -0.00000
