                              Psi4 1.0.54 Driver

  ==> Input File <==

--------------------------------------------------------------------------
set {
	reference rhf
	basis cc-pvtz
}

set_num_threads( 4 )
memory 2 gb

molecule MOL {
0 1

H	 -1.796622	 -0.057157	 2.228123
C	 -1.296621	 -0.061542	 1.282652
C	 -1.937272	 0.400694	 0.088894
C	 -0.040931	 -0.503692	 1.178834
H	 -2.947070	 0.762632	 0.138535
C	 -1.289455	 0.384382	 -1.080142
H	 0.504820	 -0.865574	 2.027562
N	 0.640204	 -0.530428	 -0.000115
H	 -1.736767	 0.722045	 -1.992204
C	 0.079606	 -0.098245	 -1.189559
C	 2.006991	 -1.033007	 -0.000020
O	 0.694411	 -0.128502	 -2.220745
H	 2.182444	 -1.636914	 -0.880881
H	 2.678769	 -0.195442	 -0.002236
H	 2.183828	 -1.633244	 0.883082

	symmetry c1
}
set optking {
	frozen_dihedral = ("
		10 8 11 13
	")
}

ee,wfn = optimize('scf', return_wfn=True)
oeprop( wfn, 'DIPOLE', 'QUADRUPOLE', 'MULLIKEN_CHARGES')
f=open( 'psi4out.xyz', 'w' )
f.write( "15  " )
f.write( str(ee) + "\n" )
f.write( MOL.save_string_xyz() )
f.close()
--------------------------------------------------------------------------

    Molecular point group: c1
  Charge       = 0
  Multiplicity = 1
  Basis Set: CC-PVTZ
  Basis Set:
  @DF-RHF Final Energy:  -360.72257700953776
    Total Energy =                       -360.7225770095379289
    Molecular point group: c1
  Basis Set: CC-PVTZ
  Basis Set:
  Basis Set: CC-PVTZ
  Basis Set:
  @DF-RHF Final Energy:  -360.72320225526539
    Total Energy =                       -360.7232022552655053
  Basis Set: CC-PVTZ
  Basis Set:
  Basis Set: CC-PVTZ
  Basis Set:
  @DF-RHF Final Energy:  -360.72327224788876
    Total Energy =                       -360.7232722478890992
  Basis Set: CC-PVTZ
  Basis Set:
  Basis Set: CC-PVTZ
  Basis Set:
  @DF-RHF Final Energy:  -360.72325108179587
    Total Energy =                       -360.7232510817958655
  Basis Set: CC-PVTZ
  Basis Set:
  Charge       = 0
  Multiplicity = 1
  Basis Set: CC-PVTZ
  Basis Set:

    Orbital Energies (a.u.)
    -----------------------

    Doubly Occupied:

       1A    -20.501941     2A    -15.617579     3A    -11.338004
       4A    -11.294293     5A    -11.265460     6A    -11.258125
       7A    -11.229722     8A    -11.227879     9A     -1.391169
      10A     -1.285873    11A     -1.118829    12A     -1.029236
      13A     -0.972603    14A     -0.876426    15A     -0.838908
      16A     -0.719548    17A     -0.702266    18A     -0.663933
      19A     -0.653028    20A     -0.626095    21A     -0.611928
      22A     -0.575563    23A     -0.553255    24A     -0.550889
      25A     -0.530948    26A     -0.484389    27A     -0.420588
      28A     -0.410492    29A     -0.310242

  @DF-RHF Final Energy:  -360.72330185453978

   => Energetics <=

    Nuclear Repulsion Energy =            358.7880406690966879
    One-Electron Energy =               -1200.9042708768515695
    Two-Electron Energy =                 481.3929283532150976
    DFT Exchange-Correlation Energy =       0.0000000000000000
    Empirical Dispersion Energy =           0.0000000000000000
    PCM Polarization Energy =               0.0000000000000000
    EFP Energy =                            0.0000000000000000
    Total Energy =                       -360.7233018545397272
    Molecular point group: c1
  Basis Set: CC-PVTZ
  Basis Set:

  -Total Gradient:
     Atom            X                  Y                   Z
    ------   -----------------  -----------------  -----------------
       1       -0.000008487591     0.000003882875    -0.000009611545
       2        0.000197286240    -0.000040206214     0.000019057997
       3       -0.000034802421     0.000043615508    -0.000171418861
       4       -0.000242872817    -0.000008350806     0.000189833407
       5        0.000013344634    -0.000002247545     0.000011541403
       6       -0.000139708797     0.000030637514     0.000046982887
       7        0.000013041836     0.000024780778    -0.000043756692
       8        0.000491031101     0.001220026044    -0.000146381802
       9        0.000018059487    -0.000003724709     0.000006043801
      10       -0.000068052484    -0.000828944979     0.000108482300
      11       -0.000441263869    -0.001323189052     0.000400101176
      12       -0.000068378004     0.000051546293    -0.000048994922
      13        0.000261428703     0.000812779813    -0.000354006344
      14        0.000002249926     0.000010796056    -0.000004653288
      15        0.000007124059     0.000008598425    -0.000003219517

  **** Optimization is complete! (in 5 steps) ****
    Final optimized geometry and variables:
    Molecular point group: c1

    Geometry (in Angstrom), charge = 0, multiplicity = 1:

    H           -1.719024991444     0.117771504617     2.506366119069
    C           -1.218296926572     0.129357709054     1.561366856350
    C           -1.851688420033     0.629100026566     0.379841133961
    C            0.030086327641    -0.334400521575     1.448458505557
    H           -2.856411970597     1.003502706867     0.439252852547
    C           -1.204912374189     0.632213926811    -0.790743224711
    H            0.565950111328    -0.727261494492     2.288676819194
    N            0.706887246302    -0.344470372168     0.268412220142
    H           -1.646650086529     0.999535883494    -1.694098854918
    C            0.158670024098     0.140436153058    -0.904838420259
    C            2.068880295929    -0.853263531073     0.210507623508
    O            0.795244064157     0.141444655388    -1.923384276192
    H            2.205269223827    -1.407319758615    -0.702202199753
    H            2.782876371735    -0.039961826887     0.219395808281
    H            2.244333956782    -1.494230378512     1.061043976372

  Mulliken Charges: (a.u.)
   Center  Symbol    Alpha    Beta     Spin     Total
       1     H     0.41393  0.41393  0.00000  0.17214
       2     C     3.10582  3.10582  0.00000 -0.21164
       3     C     3.06019  3.06019  0.00000 -0.12038
       4     C     3.03649  3.03649  0.00000 -0.07299
       5     H     0.41842  0.41842  0.00000  0.16315
       6     C     3.11828  3.11828  0.00000 -0.23657
       7     H     0.42035  0.42035  0.00000  0.15929
       8     N     3.50939  3.50939  0.00000 -0.01878
       9     H     0.40919  0.40919  0.00000  0.18161
      10     C     2.84538  2.84538  0.00000  0.30924
      11     C     3.09498  3.09498  0.00000 -0.18996
      12     O     4.23602  4.23602  0.00000 -0.47205
      13     H     0.43142  0.43142  0.00000  0.13716
      14     H     0.44502  0.44502  0.00000  0.10996
      15     H     0.45509  0.45509  0.00000  0.08982

   Total alpha = 29.00000, Total beta = 29.00000, Total charge =  0.00000

*** Psi4 exiting successfully. Buy a developer a beer!
