  ==> Input File <==

--------------------------------------------------------------------------
set {
	reference rhf
	basis cc-pvtz
}

set_num_threads( 4 )
memory 2 gb

molecule MOL {
0 1

O	 -0.694481	 1.313155	 -0.204815
C	 -0.862519	 0.151932	 -0.046791
C	 -2.171428	 -0.477048	 0.339095
O	 0.085519	 -0.757083	 -0.192238
H	 -2.467997	 -1.191667	 -0.417688
H	 -2.923379	 0.287970	 0.444097
H	 -2.053854	 -1.015120	 1.270901
C	 1.392036	 -0.330828	 -0.560749
C	 2.432534	 -0.783717	 0.442323
H	 1.398207	 0.742439	 -0.669721
H	 1.565439	 -0.783303	 -1.525606
H	 3.419535	 -0.499572	 0.095130
H	 2.266025	 -0.323323	 1.406530
H	 2.409272	 -1.860598	 0.557989

	symmetry c1
}
set optking {
	frozen_dihedral = ("
		10 8 4 2
	")
}

ee = optimize('scf')
oeprop('DIPOLE', 'QUADRUPOLE', 'MULLIKEN_CHARGES')
f=open( 'psi4out.xyz', 'w' )
f.write( "14  " )
f.write( str(ee) + "\n" )
f.write( MOL.save_string_xyz() )
f.close()
--------------------------------------------------------------------------

    Molecular point group: c1
  Charge       = 0
  Multiplicity = 1
  Basis Set: CC-PVTZ
  Basis Set:
  @DF-RHF Final Energy:  -305.98956247312782
    Total Energy =                       -305.9895624731280463
    Molecular point group: c1
  Basis Set: CC-PVTZ
  Basis Set:
  Basis Set: CC-PVTZ
  Basis Set:
  @DF-RHF Final Energy:  -305.98992676825202
    Total Energy =                       -305.9899267682519621
  Basis Set: CC-PVTZ
  Basis Set:
  Basis Set: CC-PVTZ
  Basis Set:
  @DF-RHF Final Energy:  -305.99005149099600
    Total Energy =                       -305.9900514909957110
  Basis Set: CC-PVTZ
  Basis Set:
  Basis Set: CC-PVTZ
  Basis Set:
  @DF-RHF Final Energy:  -305.98984842006826
    Total Energy =                       -305.9898484200680286
  Basis Set: CC-PVTZ
  Basis Set:
  Basis Set: CC-PVTZ
  Basis Set:
  @DF-RHF Final Energy:  -305.99011515304699
    Total Energy =                       -305.9901151530467018
  Basis Set: CC-PVTZ
  Basis Set:
  Charge       = 0
  Multiplicity = 1
  Basis Set: CC-PVTZ
  Basis Set:

    Orbital Energies (a.u.)
    -----------------------

    Doubly Occupied:

       1A    -20.593784     2A    -20.532523     3A    -11.368554
       4A    -11.281830     5A    -11.231218     6A    -11.220464
       7A     -1.468983     8A     -1.366235     9A     -1.058030
      10A     -1.000252    11A     -0.878239    12A     -0.775839
      13A     -0.699639    14A     -0.686004    15A     -0.662311
      16A     -0.613474    17A     -0.582998    18A     -0.566591
      19A     -0.562883    20A     -0.532695    21A     -0.519268
      22A     -0.497188    23A     -0.452129    24A     -0.442936

  @DF-RHF Final Energy:  -305.99011558439429

   => Energetics <=

    Nuclear Repulsion Energy =            246.6496854505628278
    One-Electron Energy =                -906.0914708635316401
    Two-Electron Energy =                 353.4516698285745520
    DFT Exchange-Correlation Energy =       0.0000000000000000
    Empirical Dispersion Energy =           0.0000000000000000
    PCM Polarization Energy =               0.0000000000000000
    EFP Energy =                            0.0000000000000000
    Total Energy =                       -305.9901155843942320
    Molecular point group: c1
  Basis Set: CC-PVTZ
  Basis Set:

  -Total Gradient:
     Atom            X                  Y                   Z
    ------   -----------------  -----------------  -----------------
       1       -0.000019646050     0.000010456778     0.000012508908
       2        0.000036249717    -0.000013759971    -0.000057257749
       3        0.000004653677    -0.000004144612    -0.000031866727
       4        0.000017274535     0.000015694694     0.000083506836
       5        0.000007880062     0.000000409188     0.000009468127
       6        0.000000899237     0.000005331984     0.000003364081
       7        0.000005537661     0.000007642108     0.000009167783
       8       -0.000043150865    -0.000052739944    -0.000116337655
       9       -0.000023157833     0.000012863611     0.000017969278
      10        0.000003268133     0.000001035497     0.000077516580
      11       -0.000002830329     0.000001915758    -0.000004330923
      12        0.000010972197     0.000006015424    -0.000008287962
      13        0.000006374566    -0.000003746650     0.000012971359
      14       -0.000004324707     0.000013026139    -0.000008391937

  **** Optimization is complete! (in 6 steps) ****
    Final optimized geometry and variables:
    Molecular point group: c1

    Geometry (in Angstrom), charge = 0, multiplicity = 1:

    O           -0.754732886359     1.471269443990    -0.162949675078
    C           -0.897367876778     0.306628450291    -0.009723262952
    C           -2.189811759258    -0.346389002202     0.392209918562
    O            0.060152562621    -0.591685553787    -0.168558758789
    H           -2.486534315901    -1.059638260045    -0.365807476201
    H           -2.952208535564     0.405528226352     0.514696418518
    H           -2.048959627662    -0.889994245299     1.317460155271
    C            1.367782879945    -0.182077849614    -0.552336944689
    C            2.365810626810    -0.649359658003     0.484654617542
    H            1.388740964875     0.888087896934    -0.666953042359
    H            1.565112117204    -0.639934100572    -1.512077421122
    H            3.370183938854    -0.389790866369     0.170043292952
    H            2.176006174972    -0.177617467631     1.441002507826
    H            2.314413848060    -1.723069774845     0.614593772425

  Mulliken Charges: (a.u.)
   Center  Symbol    Alpha    Beta     Spin     Total
       1     O     4.19825  4.19825  0.00000 -0.39649
       2     C     2.80005  2.80005  0.00000  0.39991
       3     C     3.14033  3.14033  0.00000 -0.28067
       4     O     4.15782  4.15782  0.00000 -0.31564
       5     H     0.44580  0.44580  0.00000  0.10840
       6     H     0.43828  0.43828  0.00000  0.12344
       7     H     0.44622  0.44622  0.00000  0.10756
       8     C     2.98786  2.98786  0.00000  0.02427
       9     C     3.13589  3.13589  0.00000 -0.27179
      10     H     0.44113  0.44113  0.00000  0.11774
      11     H     0.45192  0.45192  0.00000  0.09615
      12     H     0.45385  0.45385  0.00000  0.09230
      13     H     0.45102  0.45102  0.00000  0.09796
      14     H     0.45158  0.45158  0.00000  0.09684

   Total alpha = 24.00000, Total beta = 24.00000, Total charge = -0.00000
