  ==> Input File <==

--------------------------------------------------------------------------
set {
	reference rhf
	basis cc-pvtz
}

set_num_threads( 4 )
memory 2 gb

molecule MOL {
0 1

H	 1.855701	 2.343646	 0.645127
N	 1.009494	 1.821664	 0.561116
C	 1.263552	 0.494993	 0.021953
H	 0.402080	 2.339827	 -0.038794
C	 -0.016533	 -0.325589	 -0.026925
H	 1.978418	 0.003807	 0.673640
H	 1.711970	 0.519620	 -0.972179
C	 -1.280353	 0.525521	 0.047747
H	 -0.016686	 -0.912532	 -0.939714
H	 -0.014099	 -1.037598	 0.796369
C	 -2.560681	 -0.301323	 -0.007747
H	 -1.279957	 1.241025	 -0.770189
H	 -1.270445	 1.110526	 0.963468
H	 -2.617064	 -0.872870	 -0.928010
H	 -3.439525	 0.331102	 0.043462
H	 -2.609427	 -1.002736	 0.818585

	symmetry c1
}
set optking {
	frozen_dihedral = ("
		6 3 5 9
	")
}

ee = optimize('scf')
oeprop('DIPOLE', 'QUADRUPOLE', 'MULLIKEN_CHARGES')
f=open( 'psi4out.xyz', 'w' )
f.write( "16  " )
f.write( str(ee) + "\n" )
f.write( MOL.save_string_xyz() )
f.close()
--------------------------------------------------------------------------

    Molecular point group: c1
  Charge       = 0
  Multiplicity = 1
  Basis Set: CC-PVTZ
  Basis Set:
  @DF-RHF Final Energy:  -212.38968608107336
    Total Energy =                       -212.3896860810733074
    Molecular point group: c1
  Basis Set: CC-PVTZ
  Basis Set:
  Basis Set: CC-PVTZ
  Basis Set:
  @DF-RHF Final Energy:  -212.39021122594596
    Total Energy =                       -212.3902112259458477
  Basis Set: CC-PVTZ
  Basis Set:
  Basis Set: CC-PVTZ
  Basis Set:
  @DF-RHF Final Energy:  -212.39227397353164
    Total Energy =                       -212.3922739735314167
  Basis Set: CC-PVTZ
  Basis Set:
  Basis Set: CC-PVTZ
  Basis Set:
  @DF-RHF Final Energy:  -212.39244449307341
    Total Energy =                       -212.3924444930734126
  Basis Set: CC-PVTZ
  Basis Set:
  Basis Set: CC-PVTZ
  Basis Set:
  @DF-RHF Final Energy:  -212.39245511040369
    Total Energy =                       -212.3924551104038869
  Basis Set: CC-PVTZ
  Basis Set:
  Basis Set: CC-PVTZ
  Basis Set:
  @DF-RHF Final Energy:  -212.39245774025139
    Total Energy =                       -212.3924577402514728
  Basis Set: CC-PVTZ
  Basis Set:
  Charge       = 0
  Multiplicity = 1
  Basis Set: CC-PVTZ
  Basis Set:

    Orbital Energies (a.u.)
    -----------------------

    Doubly Occupied:

       1A    -15.525972     2A    -11.239366     3A    -11.208724
       4A    -11.207958     5A    -11.203335     6A     -1.177031
       7A     -1.054294     8A     -0.958067     9A     -0.852770
      10A     -0.776390    11A     -0.667073    12A     -0.644393
      13A     -0.598677    14A     -0.582930    15A     -0.549594
      16A     -0.524856    17A     -0.506835    18A     -0.470924
      19A     -0.464944    20A     -0.452507    21A     -0.380732

  @DF-RHF Final Energy:  -212.39245986300241

   => Energetics <=

    Nuclear Repulsion Energy =            189.5471877228944493
    One-Electron Energy =                -661.7845513618904079
    Two-Electron Energy =                 259.8449037759935436
    DFT Exchange-Correlation Energy =       0.0000000000000000
    Empirical Dispersion Energy =           0.0000000000000000
    PCM Polarization Energy =               0.0000000000000000
    EFP Energy =                            0.0000000000000000
    Total Energy =                       -212.3924598630023866
    Molecular point group: c1
  Basis Set: CC-PVTZ
  Basis Set:

  -Total Gradient:
     Atom            X                  Y                   Z
    ------   -----------------  -----------------  -----------------
       1       -0.000005637247    -0.000009941866    -0.000004156600
       2       -0.000005056635    -0.000031513770    -0.000012791275
       3        0.001750402102    -0.002769322206    -0.006303293181
       4       -0.000000600432    -0.000003822278     0.000002612145
       5        0.002907445443    -0.004694288970     0.004393252745
       6       -0.001914868815     0.003089373562     0.004670844091
       7        0.000002655146    -0.000002606046    -0.000002240435
       8        0.000020225931     0.000004260575     0.000002315851
       9       -0.002744185306     0.004422756074    -0.002750559697
      10       -0.000000123458     0.000000801655     0.000000929532
      11       -0.000012072678    -0.000008466171     0.000003967037
      12        0.000000588500     0.000000286966    -0.000000268444
      13       -0.000002069340     0.000002555959     0.000000056856
      14        0.000001579916     0.000001594977    -0.000001133038
      15        0.000003966302     0.000000208692    -0.000000486308
      16       -0.000002249429    -0.000001877157     0.000000950721

  **** Optimization is complete! (in 7 steps) ****
    Final optimized geometry and variables:
    Molecular point group: c1

    Geometry (in Angstrom), charge = 0, multiplicity = 1:

    H            2.312278924549     1.801201460976     0.583790270937
    N            1.418447189795     1.374612501112     0.463919305631
    C            1.566660664094     0.046053351986    -0.120648535814
    H            0.883738557122     1.977937893695    -0.123664645316
    C            0.256370000905    -0.769244842441    -0.117277604477
    H            2.287135892892    -0.460677625972     0.509250184700
    H            1.972007387004     0.080685748602    -1.129833355097
    C           -1.034717969158     0.051145605619    -0.081486735394
    H            0.223061550092    -1.358327905544    -1.028963479634
    H            0.252562984946    -1.457874203284     0.720162441723
    C           -2.277658127665    -0.831470711421    -0.135941617229
    H           -1.055383979132     0.739216983836    -0.923939871507
    H           -1.059285449460     0.657415557613     0.814414420792
    H           -2.300951595770    -1.426849829101    -1.042892712604
    H           -3.182647566475    -0.235262838609    -0.108821256142
    H           -2.307537890357    -1.514698281168     0.706468610953

  Mulliken Charges: (a.u.)
   Center  Symbol    Alpha    Beta     Spin     Total
       1     H     0.42932  0.42932  0.00000  0.14135
       2     N     3.69080  3.69080  0.00000 -0.38161
       3     C     3.03505  3.03505  0.00000 -0.07010
       4     H     0.42760  0.42760  0.00000  0.14481
       5     C     3.08119  3.08119  0.00000 -0.16238
       6     H     0.45600  0.45600  0.00000  0.08799
       7     H     0.46262  0.46262  0.00000  0.07475
       8     C     3.09201  3.09201  0.00000 -0.18403
       9     H     0.45662  0.45662  0.00000  0.08677
      10     H     0.45431  0.45431  0.00000  0.09138
      11     C     3.15128  3.15128  0.00000 -0.30256
      12     H     0.45935  0.45935  0.00000  0.08129
      13     H     0.44310  0.44310  0.00000  0.11380
      14     H     0.45697  0.45697  0.00000  0.08606
      15     H     0.44896  0.44896  0.00000  0.10208
      16     H     0.45481  0.45481  0.00000  0.09038

   Total alpha = 21.00000, Total beta = 21.00000, Total charge = -0.00000
