                              Psi4 1.0.54 Driver

  ==> Input File <==

--------------------------------------------------------------------------
set {
	reference rhf
	basis cc-pvtz
}

set_num_threads( 4 )
memory 2 gb

molecule MOL {
0 1

O	 -0.987265	 -1.409051	 -0.020940
C	 -0.675735	 -0.252776	 -0.047328
C	 -1.745516	 0.819791	 -0.048071
N	 0.622280	 0.144970	 -0.099307
H	 -1.676957	 1.444790	 -0.929560
H	 -2.700828	 0.322034	 -0.037605
H	 -1.665606	 1.457366	 0.823759
C	 1.664396	 -0.854993	 0.000772
C	 1.055950	 1.509037	 0.087789
H	 2.462727	 -0.615153	 -0.690869
H	 1.261798	 -1.821849	 -0.240651
H	 2.081615	 -0.891605	 1.003877
H	 1.939895	 1.686651	 -0.511152
H	 0.303967	 2.212776	 -0.225529
H	 1.309709	 1.715740	 1.125057

	symmetry c1
}
set optking {
	frozen_dihedral = ("
		2 4 8 10
	")
}

ee,wfn = optimize('scf', return_wfn=True)
oeprop( wfn, 'DIPOLE', 'QUADRUPOLE', 'MULLIKEN_CHARGES')
f=open( 'psi4out.xyz', 'w' )
f.write( "15  " )
f.write( str(ee) + "\n" )
f.write( MOL.save_string_xyz() )
f.close()
--------------------------------------------------------------------------

    Molecular point group: c1
  Charge       = 0
  Multiplicity = 1
  Basis Set: CC-PVTZ
  Basis Set:
  @DF-RHF Final Energy:  -286.13563461961292
    Total Energy =                       -286.1356346196129152
    Molecular point group: c1
  Basis Set: CC-PVTZ
  Basis Set:
  Basis Set: CC-PVTZ
  Basis Set:
  @DF-RHF Final Energy:  -286.13563744897783
    Total Energy =                       -286.1356374489777181
  Basis Set: CC-PVTZ
  Basis Set:
  Basis Set: CC-PVTZ
  Basis Set:
  @DF-RHF Final Energy:  -286.13563637711297
    Total Energy =                       -286.1356363771131441
  Basis Set: CC-PVTZ
  Basis Set:
  Basis Set: CC-PVTZ
  Basis Set:
  @DF-RHF Final Energy:  -286.13563944599218
    Total Energy =                       -286.1356394459921830
  Basis Set: CC-PVTZ
  Basis Set:
  Charge       = 0
  Multiplicity = 1
  Basis Set: CC-PVTZ
  Basis Set:

    Orbital Energies (a.u.)
    -----------------------

    Doubly Occupied:

       1A    -20.503561     2A    -15.578486     3A    -11.335128
       4A    -11.263997     5A    -11.246442     6A    -11.226470
       7A     -1.387327     8A     -1.246356     9A     -1.015114
      10A     -0.973219    11A     -0.920895    12A     -0.739059
      13A     -0.683300    14A     -0.661970    15A     -0.653846
      16A     -0.590274    17A     -0.578178    18A     -0.567490
      19A     -0.561742    20A     -0.548418    21A     -0.530392
      22A     -0.507320    23A     -0.413680    24A     -0.370469

  @DF-RHF Final Energy:  -286.13564008171403

   => Energetics <=

    Nuclear Repulsion Energy =            252.8986684138207579
    One-Electron Energy =                -889.8623474308569712
    Two-Electron Energy =                 350.8280389353218993
    DFT Exchange-Correlation Energy =       0.0000000000000000
    Empirical Dispersion Energy =           0.0000000000000000
    PCM Polarization Energy =               0.0000000000000000
    EFP Energy =                            0.0000000000000000
    Total Energy =                       -286.1356400817142571
    Molecular point group: c1
  Basis Set: CC-PVTZ
  Basis Set:

  -Total Gradient:
     Atom            X                  Y                   Z
    ------   -----------------  -----------------  -----------------
       1        0.000026156233     0.000027185369    -0.000026413677
       2        0.000037833142    -0.000041425315     0.000039061881
       3        0.000026030285     0.000020881374    -0.000017963339
       4       -0.000050490515    -0.000031851069    -0.000038904786
       5        0.000000754033    -0.000006323989     0.000009796047
       6       -0.000004461547    -0.000001526239     0.000002263112
       7        0.000012722575     0.000004203548     0.000006118546
       8       -0.000043864976     0.000000072395     0.000035969895
       9        0.000004265934     0.000006232519     0.000013973432
      10       -0.000015364505     0.000009505997     0.000002916052
      11        0.000003697725    -0.000020519764    -0.000009686921
      12        0.000022489299    -0.000008311195    -0.000012380777
      13       -0.000001235408    -0.000003431045     0.000008734676
      14       -0.000014995407     0.000021566163    -0.000025759992
      15       -0.000003536869     0.000023741246     0.000012275848

  **** Optimization is complete! (in 5 steps) ****
    Final optimized geometry and variables:
    Molecular point group: c1

    Geometry (in Angstrom), charge = 0, multiplicity = 1:

    O           -0.986725444888    -1.405571311132    -0.011817417383
    C           -0.674445052107    -0.249337889384    -0.031418330549
    C           -1.744158707314     0.823357648593    -0.030622567335
    N            0.623579376855     0.147930558539    -0.074610954948
    H           -1.676604480763     1.448138638775    -0.912332159080
    H           -2.699417842138     0.325504654261    -0.019481820848
    H           -1.663435251360     1.460928767972     0.841071713634
    C            1.666594985256    -0.851174362980     0.021714580317
    C            1.059133087083     1.512397964722     0.103529544899
    H            2.468124220675    -0.605573645489    -0.664466459831
    H            1.266154582119    -1.816590828955    -0.228680858679
    H            2.079379002953    -0.893799932514     1.026324224896
    H            1.936011470354     1.689134645163    -0.506254440225
    H            0.303465509769     2.215538425717    -0.201765581472
    H            1.325264787130     1.720925903443     1.137257112988

  Mulliken Charges: (a.u.)
   Center  Symbol    Alpha    Beta     Spin     Total
       1     O     4.22082  4.22082  0.00000 -0.44164
       2     C     2.84551  2.84551  0.00000  0.30897
       3     C     3.16077  3.16077  0.00000 -0.32155
       4     N     3.56156  3.56156  0.00000 -0.12312
       5     H     0.44890  0.44890  0.00000  0.10219
       6     H     0.42863  0.42863  0.00000  0.14275
       7     H     0.44925  0.44925  0.00000  0.10150
       8     C     3.09897  3.09897  0.00000 -0.19794
       9     C     3.09559  3.09559  0.00000 -0.19117
      10     H     0.45671  0.45671  0.00000  0.08659
      11     H     0.42625  0.42625  0.00000  0.14749
      12     H     0.45786  0.45786  0.00000  0.08428
      13     H     0.44953  0.44953  0.00000  0.10095
      14     H     0.44507  0.44507  0.00000  0.10987
      15     H     0.45458  0.45458  0.00000  0.09084

   Total alpha = 24.00000, Total beta = 24.00000, Total charge = -0.00000

*** Psi4 exiting successfully. Buy a developer a beer!
