                              Psi4 1.0.54 Driver

  ==> Input File <==

--------------------------------------------------------------------------
set {
	reference rhf
	basis cc-pvtz
}

set_num_threads( 4 )
memory 2 gb

molecule MOL {
0 1

H	 -0.000105	 1.988529	 0.748933
O	 -0.000098	 1.879786	 -0.188206
C	 -0.000014	 0.545691	 -0.532416
C	 -1.286000	 -0.125171	 -0.046657
C	 1.286016	 -0.125031	 -0.046584
H	 0.000021	 0.481103	 -1.610604
F	 -1.013884	 -1.341268	 0.358213
F	 -1.835849	 0.517527	 0.952501
F	 -2.173540	 -0.215755	 -1.013840
F	 2.317750	 0.468717	 -0.594166
F	 1.336617	 -1.393765	 -0.365123
F	 1.414467	 -0.024806	 1.259108

	symmetry c1
}
set optking {
	frozen_dihedral = ("
		7 4 3 6
	")
}

ee,wfn = optimize('scf', return_wfn=True)
oeprop( wfn, 'DIPOLE', 'QUADRUPOLE', 'MULLIKEN_CHARGES')
f=open( 'psi4out.xyz', 'w' )
f.write( "12  " )
f.write( str(ee) + "\n" )
f.write( MOL.save_string_xyz() )
f.close()
--------------------------------------------------------------------------

    Molecular point group: c1
  Charge       = 0
  Multiplicity = 1
  Basis Set: CC-PVTZ
  Basis Set:
  @DF-RHF Final Energy:  -786.58322073240913
    Total Energy =                       -786.5832207324092451
    Molecular point group: c1
  Basis Set: CC-PVTZ
  Basis Set:
  Basis Set: CC-PVTZ
  Basis Set:
  @DF-RHF Final Energy:  -786.58491064661428
    Total Energy =                       -786.5849106466143894
  Basis Set: CC-PVTZ
  Basis Set:
  Basis Set: CC-PVTZ
  Basis Set:
  @DF-RHF Final Energy:  -786.58549706948406
    Total Energy =                       -786.5854970694841768
  Basis Set: CC-PVTZ
  Basis Set:
  Basis Set: CC-PVTZ
  Basis Set:
  @DF-RHF Final Energy:  -786.58560106192795
    Total Energy =                       -786.5856010619281733
  Basis Set: CC-PVTZ
  Basis Set:
  Basis Set: CC-PVTZ
  Basis Set:
  @DF-RHF Final Energy:  -786.58564160932065
    Total Energy =                       -786.5856416093203052
  Basis Set: CC-PVTZ
  Basis Set:
  Basis Set: CC-PVTZ
  Basis Set:
  @DF-RHF Final Energy:  -786.58564851217238
    Total Energy =                       -786.5856485121724972
  Basis Set: CC-PVTZ
  Basis Set:
  Charge       = 0
  Multiplicity = 1
  Basis Set: CC-PVTZ
  Basis Set:

    Orbital Energies (a.u.)
    -----------------------

    Doubly Occupied:

       1A    -26.358790     2A    -26.357855     3A    -26.357739
       4A    -26.357117     5A    -26.355321     6A    -26.352229
       7A    -20.607752     8A    -11.523022     9A    -11.517645
      10A    -11.351620    11A     -1.772878    12A     -1.765824
      13A     -1.666602    14A     -1.665679    15A     -1.663244
      16A     -1.659685    17A     -1.437822    18A     -1.100708
      19A     -1.001625    20A     -0.944221    21A     -0.872893
      22A     -0.867625    23A     -0.858069    24A     -0.853429
      25A     -0.841625    26A     -0.821899    27A     -0.742433
      28A     -0.738204    29A     -0.732829    30A     -0.729715
      31A     -0.694879    32A     -0.692609    33A     -0.688253
      34A     -0.682888    35A     -0.676238    36A     -0.668704
      37A     -0.663970    38A     -0.653937    39A     -0.623617
      40A     -0.553641    41A     -0.509002

  @DF-RHF Final Energy:  -786.58564893829953

   => Energetics <=

    Nuclear Repulsion Energy =            670.2833481158352242
    One-Electron Energy =               -2427.7703207006943558
    Two-Electron Energy =                 970.9013236465594900
    DFT Exchange-Correlation Energy =       0.0000000000000000
    Empirical Dispersion Energy =           0.0000000000000000
    PCM Polarization Energy =               0.0000000000000000
    EFP Energy =                            0.0000000000000000
    Total Energy =                       -786.5856489382996415
    Molecular point group: c1
  Basis Set: CC-PVTZ
  Basis Set:

  -Total Gradient:
     Atom            X                  Y                   Z
    ------   -----------------  -----------------  -----------------
       1       -0.000000658985     0.000009044844     0.000027537256
       2        0.000030367857    -0.000019984512    -0.000025003218
       3        0.002975238064    -0.004605323457     0.001547304654
       4       -0.001431198604    -0.001042097051    -0.005177113079
       5        0.000048829542    -0.000055232208    -0.000111921715
       6       -0.002261812103     0.004237061627    -0.000257035553
       7        0.000718768388     0.001512814992     0.003783762942
       8       -0.000028437389    -0.000028948043     0.000089315970
       9        0.000005881636    -0.000058852506     0.000018275735
      10        0.000009849719     0.000068836827    -0.000000814297
      11       -0.000044525973    -0.000007020601     0.000038958290
      12       -0.000022302140    -0.000010299913     0.000066733020

  **** Optimization is complete! (in 7 steps) ****
    Final optimized geometry and variables:
    Molecular point group: c1

    Geometry (in Angstrom), charge = 0, multiplicity = 1:

    H           -0.088587905725     2.038017033577     0.670077244599
    O            0.016823122515     1.888268733110    -0.254570317075
    C            0.006319358510     0.542395093914    -0.551106618432
    C           -1.287437892898    -0.126916552151    -0.032218974067
    C            1.288295929888    -0.124899038898    -0.057282022829
    H           -0.010656166960     0.475755013845    -1.627936089694
    F           -1.098985953725    -1.351379325614     0.393059610832
    F           -1.784180822063     0.554997059109     0.977968850018
    F           -2.194573993965    -0.156441346354    -0.976976806746
    F            2.327701219351     0.536904978819    -0.499312812326
    F            1.390471519346    -1.359517894320    -0.482938919612
    F            1.346135718325    -0.131202317361     1.257965628204

  Mulliken Charges: (a.u.)
   Center  Symbol    Alpha    Beta     Spin     Total
       1     H     0.38060  0.38060  0.00000  0.23880
       2     O     4.18747  4.18747  0.00000 -0.37494
       3     C     3.02008  3.02008  0.00000 -0.04016
       4     C     2.67458  2.67458  0.00000  0.65084
       5     C     2.67917  2.67917  0.00000  0.64165
       6     H     0.42651  0.42651  0.00000  0.14697
       7     F     4.60096  4.60096  0.00000 -0.20192
       8     F     4.61046  4.61046  0.00000 -0.22092
       9     F     4.60286  4.60286  0.00000 -0.20572
      10     F     4.60074  4.60074  0.00000 -0.20148
      11     F     4.60478  4.60478  0.00000 -0.20956
      12     F     4.61178  4.61178  0.00000 -0.22355

   Total alpha = 41.00000, Total beta = 41.00000, Total charge = -0.00000

*** Psi4 exiting successfully. Buy a developer a beer!
