  ==> Input File <==

--------------------------------------------------------------------------
set {
	reference rhf
	basis 6-31G*
}

set_num_threads( 4 )
memory 2 gb

molecule MOL {
0 1

H	 -0.063110	 2.563950	 0.303720
C	 0.810739	 1.914567	 0.374269
N	 0.538815	 0.649616	 0.000000
O	 1.871765	 2.320387	 0.746749
C	 1.521968	 -0.411503	 0.000000
H	 -0.389078	 0.442218	 -0.290319
H	 2.150599	 -0.357004	 -0.881901
H	 0.999455	 -1.354525	 0.000000
H	 2.150599	 -0.357004	 0.881901

	symmetry c1
}
set optking {
	frozen_dihedral = ("
		6 3 5 7
	")
}

ee = optimize('scf')
oeprop('DIPOLE', 'QUADRUPOLE', 'MULLIKEN_CHARGES')
f=open( 'psi4out.xyz', 'w' )
f.write( "9  " )
f.write( str(ee) + "\n" )
f.write( MOL.save_string_xyz() )
f.close()
--------------------------------------------------------------------------

    Molecular point group: c1
  Charge       = 0
  Multiplicity = 1
  Basis Set: 6-31G*
  Basis Set:
  @DF-RHF Final Energy:  -207.96077728571569
    Total Energy =                       -207.9607772857157215
    Molecular point group: c1
  Basis Set: 6-31G*
  Basis Set:
  Basis Set: 6-31G*
  Basis Set:
  @DF-RHF Final Energy:  -207.96099317234084
    Total Energy =                       -207.9609931723409204
  Basis Set: 6-31G*
  Basis Set:
  Basis Set: 6-31G*
  Basis Set:
  @DF-RHF Final Energy:  -207.96097953696403
    Total Energy =                       -207.9609795369640324
  Basis Set: 6-31G*
  Basis Set:
  Basis Set: 6-31G*
  Basis Set:
  @DF-RHF Final Energy:  -207.96103849446413
    Total Energy =                       -207.9610384944642192
  Basis Set: 6-31G*
  Basis Set:
  Basis Set: 6-31G*
  Basis Set:
  @DF-RHF Final Energy:  -207.96105576139382
    Total Energy =                       -207.9610557613938511
  Basis Set: 6-31G*
  Basis Set:
  Basis Set: 6-31G*
  Basis Set:
  @DF-RHF Final Energy:  -207.96106143001805
    Total Energy =                       -207.9610614300180202
  Basis Set: 6-31G*
  Basis Set:
  Basis Set: 6-31G*
  Basis Set:
  @DF-RHF Final Energy:  -207.96106340383631
    Total Energy =                       -207.9610634038363060
  Basis Set: 6-31G*
  Basis Set:
  Charge       = 0
  Multiplicity = 1
  Basis Set: 6-31G*
  Basis Set:

    Orbital Energies (a.u.)
    -----------------------

    Doubly Occupied:

       1A    -20.526070     2A    -15.590392     3A    -11.342861
       4A    -11.261166     5A     -1.389364     6A     -1.235981
       7A     -0.967811     8A     -0.807936     9A     -0.746579
      10A     -0.641085    11A     -0.626742    12A     -0.592516
      13A     -0.557739    14A     -0.532843    15A     -0.423826
      16A     -0.391223

  @DF-RHF Final Energy:  -207.96106361451621

   => Energetics <=

    Nuclear Repulsion Energy =            122.6850633636623797
    One-Electron Energy =                -526.0239839422964678
    Two-Electron Energy =                 195.3778569641178535
    DFT Exchange-Correlation Energy =       0.0000000000000000
    Empirical Dispersion Energy =           0.0000000000000000
    PCM Polarization Energy =               0.0000000000000000
    EFP Energy =                            0.0000000000000000
    Total Energy =                       -207.9610636145162346
    Molecular point group: c1
  Basis Set: 6-31G*
  Basis Set:

  -Total Gradient:
     Atom            X                  Y                   Z
    ------   -----------------  -----------------  -----------------
       1        0.000001772252     0.000006502910     0.000002854891
       2       -0.000021368347    -0.000022208585    -0.000016415101
       3        0.000026172192     0.000044784065    -0.000053314641
       4        0.000015479176     0.000009201888     0.000008704157
       5       -0.000040484966    -0.000052744061    -0.000020087801
       6       -0.000010166329    -0.000019096938     0.000052448869
       7        0.000028222904     0.000026546350     0.000022860642
       8        0.000002292280     0.000004746683    -0.000001303260
       9       -0.000001919161     0.000002267687     0.000004252245

  **** Optimization is complete! (in 8 steps) ****
    Final optimized geometry and variables:
    Molecular point group: c1

    Geometry (in Angstrom), charge = 0, multiplicity = 1:

    H           -1.239783392354     1.481054615562     0.034650801315
    C           -0.378600574626     0.813296505318     0.090351876162
    N           -0.681491085598    -0.458793712154    -0.227080791754
    O            0.706181705954     1.198577424083     0.413112560897
    C            0.324895238979    -1.498561545601    -0.264799595024
    H           -1.598563427744    -0.658653072589    -0.552600742347
    H            0.982431549462    -1.389500221628    -1.120140382141
    H           -0.167557811079    -2.460089767193    -0.319659376712
    H            0.924193023784    -1.461131085412     0.633612732657

  Mulliken Charges: (a.u.)
   Center  Symbol    Alpha    Beta     Spin     Total
       1     H     0.42693  0.42693  0.00000  0.14613
       2     C     2.74723  2.74723  0.00000  0.50555
       3     N     3.87469  3.87469  0.00000 -0.74937
       4     O     4.28304  4.28304  0.00000 -0.56608
       5     C     3.13734  3.13734  0.00000 -0.27467
       6     H     0.30810  0.30810  0.00000  0.38380
       7     H     0.40923  0.40923  0.00000  0.18154
       8     H     0.41554  0.41554  0.00000  0.16891
       9     H     0.39790  0.39790  0.00000  0.20420

   Total alpha = 16.00000, Total beta = 16.00000, Total charge =  0.00000
