  ==> Input File <==

--------------------------------------------------------------------------
set {
	reference rhf
	basis cc-pvtz
}

set_num_threads( 4 )
memory 2 gb

molecule MOL {
0 1

H	 -0.000342	 -0.223902	 -3.352295
C	 -0.027146	 0.371068	 -2.446756
C	 0.024493	 -0.518541	 -1.216015
H	 -0.932586	 0.964979	 -2.449855
H	 0.819708	 1.049865	 -2.473332
N	 -0.042516	 0.263377	 -0.000000
H	 -0.822211	 -1.197105	 -1.225584
H	 0.921114	 -1.142847	 -1.255206
C	 0.024493	 -0.518541	 1.216015
H	 0.682568	 0.950412	 -0.000000
C	 1.067331	 0.036766	 2.171482
H	 -0.951473	 -0.487103	 1.689250
H	 0.237374	 -1.572209	 1.016797
H	 0.847468	 1.068001	 2.418009
H	 1.094143	 -0.540228	 3.088580
H	 2.058791	 0.001005	 1.730617

	symmetry c1
}
set optking {
	frozen_dihedral = ("
		12 9 6 3
	")
}

ee = optimize('scf')
oeprop('DIPOLE', 'QUADRUPOLE', 'MULLIKEN_CHARGES')
f=open( 'psi4out.xyz', 'w' )
f.write( "16  " )
f.write( str(ee) + "\n" )
f.write( MOL.save_string_xyz() )
f.close()
--------------------------------------------------------------------------

    Molecular point group: c1
  Charge       = 0
  Multiplicity = 1
  Basis Set: CC-PVTZ
  Basis Set:
  @DF-RHF Final Energy:  -212.38933852585046
    Total Energy =                       -212.3893385258504054
    Molecular point group: c1
  Basis Set: CC-PVTZ
  Basis Set:
  Basis Set: CC-PVTZ
  Basis Set:
  @DF-RHF Final Energy:  -212.38975294856652
    Total Energy =                       -212.3897529485667519
  Basis Set: CC-PVTZ
  Basis Set:
  Basis Set: CC-PVTZ
  Basis Set:
  @DF-RHF Final Energy:  -212.38983570228385
    Total Energy =                       -212.3898357022837331
  Basis Set: CC-PVTZ
  Basis Set:
  Basis Set: CC-PVTZ
  Basis Set:
  @DF-RHF Final Energy:  -212.38983749478231
    Total Energy =                       -212.3898374947823413
  Basis Set: CC-PVTZ
  Basis Set:
  Charge       = 0
  Multiplicity = 1
  Basis Set: CC-PVTZ
  Basis Set:

    Orbital Energies (a.u.)
    -----------------------

    Doubly Occupied:

       1A    -15.526154     2A    -11.239130     3A    -11.238761
       4A    -11.211391     5A    -11.206037     6A     -1.203854
       7A     -1.029562     8A     -0.964364     9A     -0.836288
      10A     -0.822848    11A     -0.646698    12A     -0.629347
      13A     -0.620166    14A     -0.583269    15A     -0.553608
      16A     -0.522452    17A     -0.506974    18A     -0.495313
      19A     -0.486895    20A     -0.472605    21A     -0.357432

  @DF-RHF Final Energy:  -212.38983762903118

   => Energetics <=

    Nuclear Repulsion Energy =            189.7382393794777897
    One-Electron Energy =                -661.9498622600918907
    Two-Electron Energy =                 259.8217852515830373
    DFT Exchange-Correlation Energy =       0.0000000000000000
    Empirical Dispersion Energy =           0.0000000000000000
    PCM Polarization Energy =               0.0000000000000000
    EFP Energy =                            0.0000000000000000
    Total Energy =                       -212.3898376290310352
    Molecular point group: c1
  Basis Set: CC-PVTZ
  Basis Set:

  -Total Gradient:
     Atom            X                  Y                   Z
    ------   -----------------  -----------------  -----------------
       1        0.000001262916     0.000001371737    -0.000005147385
       2        0.000003717217    -0.000003768911     0.000000820341
       3        0.002023115767     0.000165264556    -0.000022873557
       4        0.000002566570    -0.000003736662     0.000003782692
       5       -0.000000052289     0.000001114426    -0.000000994296
       6       -0.002736347735     0.000301786127     0.000341022985
       7        0.000001287022    -0.000001621497     0.000001382188
       8       -0.000001946856     0.000008825856     0.000002550365
       9       -0.000000452330    -0.002620907129    -0.001635861865
      10        0.000003178978     0.000000766817     0.000004449497
      11       -0.000008305689    -0.000001088865     0.000000632774
      12        0.000721960498     0.002159912581     0.001297687701
      13       -0.000001288433    -0.000005435714     0.000006797186
      14        0.000002415754     0.000001520119    -0.000000444871
      15        0.000001016626    -0.000003302607     0.000007967842
      16       -0.000012128017    -0.000000700834    -0.000001771601

  **** Optimization is complete! (in 5 steps) ****
    Final optimized geometry and variables:
    Molecular point group: c1

    Geometry (in Angstrom), charge = 0, multiplicity = 1:

    H           -0.225007585510    -0.143763991231    -3.306369660170
    C           -0.255387781328     0.444867066373    -2.396757007393
    C           -0.204756430548    -0.452969502974    -1.172385281227
    H           -1.161854570030     1.037200314362    -2.397825418852
    H            0.590247888181     1.125605954867    -2.416137493347
    N           -0.268760665939     0.323911207707     0.048148760919
    H           -1.052482215268    -1.130108523972    -1.189664710786
    H            0.690863308843    -1.078071166906    -1.215877192858
    C           -0.196224926367    -0.447040623009     1.282169555590
    H            0.448833882740     1.015818895000     0.036214639058
    C            0.845142793196     0.106088871194     2.244982130309
    H           -1.161785470758    -0.427584559548     1.778362385566
    H            0.034180927225    -1.487584413864     1.068951799847
    H            0.639778895740     1.146298578667     2.475123196271
    H            0.841434264639    -0.446720488255     3.177040834861
    H            1.842349935589     0.044502047951     1.821160784121

  Mulliken Charges: (a.u.)
   Center  Symbol    Alpha    Beta     Spin     Total
       1     H     0.45368  0.45368  0.00000  0.09265
       2     C     3.14385  3.14385  0.00000 -0.28770
       3     C     3.02105  3.02105  0.00000 -0.04210
       4     H     0.44932  0.44932  0.00000  0.10136
       5     H     0.45979  0.45979  0.00000  0.08042
       6     N     3.63903  3.63903  0.00000 -0.27806
       7     H     0.45793  0.45793  0.00000  0.08413
       8     H     0.47479  0.47479  0.00000  0.05042
       9     C     3.01948  3.01948  0.00000 -0.03896
      10     H     0.44553  0.44553  0.00000  0.10893
      11     C     3.15111  3.15111  0.00000 -0.30221
      12     H     0.45821  0.45821  0.00000  0.08357
      13     H     0.46746  0.46746  0.00000  0.06508
      14     H     0.45187  0.45187  0.00000  0.09626
      15     H     0.45062  0.45062  0.00000  0.09877
      16     H     0.45629  0.45629  0.00000  0.08743

   Total alpha = 21.00000, Total beta = 21.00000, Total charge = -0.00000
