  ==> Input File <==

--------------------------------------------------------------------------
set {
	reference rhf
	basis cc-pvtz
}

set_num_threads( 4 )
memory 2 gb

molecule MOL {
0 1

H	 -1.298805	 -1.996309	 -0.828589
C	 -1.129607	 -1.132951	 -1.463907
O	 -0.775228	 0.000056	 -0.739966
H	 -2.055896	 -0.901757	 -1.970553
H	 -0.390708	 -1.394794	 -2.214306
C	 0.406133	 -0.000384	 0.036994
C	 1.526415	 -0.003194	 -0.997339
C	 0.498772	 1.259027	 0.900673
C	 0.495883	 -1.257378	 0.904465
H	 1.452279	 0.872071	 -1.630204
H	 1.451276	 -0.881020	 -1.626529
H	 2.497919	 -0.002741	 -0.517601
H	 0.368981	 2.144239	 0.289753
H	 1.470064	 1.313479	 1.377660
H	 -0.248448	 1.271586	 1.684297
H	 0.363971	 -2.144195	 0.296316
H	 1.467114	 -1.312636	 1.381470
H	 -0.251246	 -1.265768	 1.688235

	symmetry c1
}
set optking {
	frozen_dihedral = ("
		2 3 6 7
	")
}

ee = optimize('scf')
oeprop('DIPOLE', 'QUADRUPOLE', 'MULLIKEN_CHARGES')
f=open( 'psi4out.xyz', 'w' )
f.write( "18  " )
f.write( str(ee) + "\n" )
f.write( MOL.save_string_xyz() )
f.close()
--------------------------------------------------------------------------

    Molecular point group: c1
  Charge       = 0
  Multiplicity = 1
  Basis Set: CC-PVTZ
  Basis Set:
  @DF-RHF Final Energy:  -271.26940752940624
    Total Energy =                       -271.2694075294061804
    Molecular point group: c1
  Basis Set: CC-PVTZ
  Basis Set:
  Basis Set: CC-PVTZ
  Basis Set:
  @DF-RHF Final Energy:  -271.27399108590566
    Total Energy =                       -271.2739910859054930
  Basis Set: CC-PVTZ
  Basis Set:
  Basis Set: CC-PVTZ
  Basis Set:
  @DF-RHF Final Energy:  -271.27655707258072
    Total Energy =                       -271.2765570725806583
  Basis Set: CC-PVTZ
  Basis Set:
  Basis Set: CC-PVTZ
  Basis Set:
  @DF-RHF Final Energy:  -271.27658047764191
    Total Energy =                       -271.2765804776418577
  Basis Set: CC-PVTZ
  Basis Set:
  Basis Set: CC-PVTZ
  Basis Set:
  @DF-RHF Final Energy:  -271.27668626008926
    Total Energy =                       -271.2766862600893774
  Basis Set: CC-PVTZ
  Basis Set:
  Basis Set: CC-PVTZ
  Basis Set:
  @DF-RHF Final Energy:  -271.27670218646955
    Total Energy =                       -271.2767021864701178
  Basis Set: CC-PVTZ
  Basis Set:
  Basis Set: CC-PVTZ
  Basis Set:
  @DF-RHF Final Energy:  -271.27670331260720
    Total Energy =                       -271.2767033126072533
  Basis Set: CC-PVTZ
  Basis Set:
  Charge       = 0
  Multiplicity = 1
  Basis Set: CC-PVTZ
  Basis Set:

    Orbital Energies (a.u.)
    -----------------------

    Doubly Occupied:

       1A    -20.540559     2A    -11.280115     3A    -11.258196
       4A    -11.208131     5A    -11.206117     6A    -11.201787
       7A     -1.373604     8A     -1.074657     9A     -0.947196
      10A     -0.940441    11A     -0.913131    12A     -0.753493
      13A     -0.656732    14A     -0.646836    15A     -0.639549
      16A     -0.593303    17A     -0.575582    18A     -0.553286
      19A     -0.534525    20A     -0.525066    21A     -0.515127
      22A     -0.489193    23A     -0.487614    24A     -0.440976
      25A     -0.407236

  @DF-RHF Final Energy:  -271.27670347497366

   => Energetics <=

    Nuclear Repulsion Energy =            272.6880857023626845
    One-Electron Energy =                -908.4046698292838755
    Two-Electron Energy =                 364.4398806519477034
    DFT Exchange-Correlation Energy =       0.0000000000000000
    Empirical Dispersion Energy =           0.0000000000000000
    PCM Polarization Energy =               0.0000000000000000
    EFP Energy =                            0.0000000000000000
    Total Energy =                       -271.2767034749734307
    Molecular point group: c1
  Basis Set: CC-PVTZ
  Basis Set:

  -Total Gradient:
     Atom            X                  Y                   Z
    ------   -----------------  -----------------  -----------------
       1        0.000001533384     0.000004859379    -0.000001694469
       2       -0.000187924633    -0.000159686422     0.000351791685
       3        0.000286505088     0.000364875126    -0.000498197090
       4       -0.000002912874     0.000003507336     0.000004956767
       5        0.000004155151     0.000002840120    -0.000003151998
       6       -0.000099495155    -0.000568884998     0.000127720228
       7        0.000016429638     0.000349673603     0.000026425829
       8       -0.000017046603     0.000000905550     0.000002478683
       9       -0.000001277139     0.000001768436    -0.000005875380
      10       -0.000004001529     0.000000856413     0.000006695864
      11       -0.000004692698     0.000000306756    -0.000003094637
      12        0.000006443804    -0.000003604895    -0.000004576286
      13        0.000004510129    -0.000001004982    -0.000005507606
      14       -0.000007126602    -0.000013229249    -0.000000063516
      15       -0.000003142398     0.000008504194     0.000002589998
      16       -0.000000307401     0.000001789927     0.000003324750
      17        0.000005968203     0.000003699019    -0.000000692622
      18        0.000002381635     0.000002824689    -0.000003130203

  **** Optimization is complete! (in 8 steps) ****
    Final optimized geometry and variables:
    Molecular point group: c1

    Geometry (in Angstrom), charge = 0, multiplicity = 1:

    H           -1.609312871264    -1.732919788476    -0.565932367412
    C           -1.387633923931    -0.868206481583    -1.182792893790
    O           -0.956113763953     0.219770762697    -0.431996233955
    H           -2.299137394208    -0.564287453558    -1.677753038863
    H           -0.671956042639    -1.161332727307    -1.944440313232
    C            0.288264705999     0.163579125865     0.237603660216
    C            1.440992306927     0.198416822188    -0.767886833357
    C            0.307090949317     1.428190988660     1.089438060429
    C            0.389971415350    -1.070166501096     1.135671507643
    H            1.338614752551     1.054569492182    -1.423255207048
    H            1.474932649901    -0.695727631877    -1.377873240948
    H            2.390120218554     0.274896155335    -0.250535203883
    H            0.195732315570     2.302268530453     0.460506446353
    H            1.237481966547     1.512838879738     1.638315743763
    H           -0.512570001792     1.415582260564     1.796708668969
    H            0.443355287720    -1.987871672426     0.563180986098
    H            1.285298684669    -1.012896522366     1.742766401959
    H           -0.465790049999    -1.128615147343     1.797709670650

  Mulliken Charges: (a.u.)
   Center  Symbol    Alpha    Beta     Spin     Total
       1     H     0.46826  0.46826  0.00000  0.06348
       2     C     3.04442  3.04442  0.00000 -0.08883
       3     O     4.19029  4.19029  0.00000 -0.38058
       4     H     0.44083  0.44083  0.00000  0.11835
       5     H     0.47037  0.47037  0.00000  0.05927
       6     C     2.87359  2.87359  0.00000  0.25282
       7     C     3.15979  3.15979  0.00000 -0.31958
       8     C     3.14148  3.14148  0.00000 -0.28296
       9     C     3.16806  3.16806  0.00000 -0.33612
      10     H     0.44612  0.44612  0.00000  0.10775
      11     H     0.44949  0.44949  0.00000  0.10102
      12     H     0.44992  0.44992  0.00000  0.10016
      13     H     0.44826  0.44826  0.00000  0.10349
      14     H     0.45937  0.45937  0.00000  0.08126
      15     H     0.44952  0.44952  0.00000  0.10096
      16     H     0.44853  0.44853  0.00000  0.10294
      17     H     0.44693  0.44693  0.00000  0.10615
      18     H     0.44478  0.44478  0.00000  0.11044

   Total alpha = 25.00000, Total beta = 25.00000, Total charge = -0.00000
