  ==> Input File <==

--------------------------------------------------------------------------
set {
	reference rhf
	basis cc-pvtz
}

set_num_threads( 4 )
memory 2 gb

molecule MOL {
0 1

H	 -1.588231	 -0.527899	 0.784520
N	 -1.173824	 -0.310545	 -0.096857
C	 -0.022588	 0.563366	 0.065815
H	 -0.907231	 -1.175655	 -0.518908
C	 1.270420	 -0.230572	 -0.014245
H	 -0.045354	 1.293678	 -0.735129
H	 -0.043155	 1.123061	 1.001180
H	 1.336273	 -0.754933	 -0.959364
H	 2.130728	 0.422015	 0.082222
H	 1.323344	 -0.967006	 0.781773

	symmetry c1
}
set optking {
	frozen_dihedral = ("
		1 2 3 6
	")
}

ee = optimize('scf')
oeprop('DIPOLE', 'QUADRUPOLE', 'MULLIKEN_CHARGES')
f=open( 'psi4out.xyz', 'w' )
f.write( "10  " )
f.write( str(ee) + "\n" )
f.write( MOL.save_string_xyz() )
f.close()
--------------------------------------------------------------------------

    Molecular point group: c1
  Charge       = 0
  Multiplicity = 1
  Basis Set: CC-PVTZ
  Basis Set:
  @DF-RHF Final Energy:  -134.30042638370998
    Total Energy =                       -134.3004263837099757
    Molecular point group: c1
  Basis Set: CC-PVTZ
  Basis Set:
  Basis Set: CC-PVTZ
  Basis Set:
  @DF-RHF Final Energy:  -134.30194548803922
    Total Energy =                       -134.3019454880392516
  Basis Set: CC-PVTZ
  Basis Set:
  Basis Set: CC-PVTZ
  Basis Set:
  @DF-RHF Final Energy:  -134.30216529265442
    Total Energy =                       -134.3021652926543936
  Basis Set: CC-PVTZ
  Basis Set:
  Basis Set: CC-PVTZ
  Basis Set:
  @DF-RHF Final Energy:  -134.30218103720620
    Total Energy =                       -134.3021810372062532
  Basis Set: CC-PVTZ
  Basis Set:
  Charge       = 0
  Multiplicity = 1
  Basis Set: CC-PVTZ
  Basis Set:

    Orbital Energies (a.u.)
    -----------------------

    Doubly Occupied:

       1A    -15.523952     2A    -11.240931     3A    -11.209278
       4A     -1.175439     5A     -0.989085     6A     -0.831960
       7A     -0.672628     8A     -0.603138     9A     -0.589662
      10A     -0.545489    11A     -0.508108    12A     -0.484819
      13A     -0.378523

  @DF-RHF Final Energy:  -134.30218269607676

   => Energetics <=

    Nuclear Repulsion Energy =             83.3222920867471828
    One-Electron Energy =                -345.7429246187398348
    Two-Electron Energy =                 128.1184498359159250
    DFT Exchange-Correlation Energy =       0.0000000000000000
    Empirical Dispersion Energy =           0.0000000000000000
    PCM Polarization Energy =               0.0000000000000000
    EFP Energy =                            0.0000000000000000
    Total Energy =                       -134.3021826960766987
    Molecular point group: c1
  Basis Set: CC-PVTZ
  Basis Set:

  -Total Gradient:
     Atom            X                  Y                   Z
    ------   -----------------  -----------------  -----------------
       1       -0.001756154217     0.002557975945    -0.000122485357
       2        0.001796959569    -0.002792344993     0.000536460945
       3        0.001414664174    -0.001592824083    -0.002147247203
       4        0.000041976574     0.000060845316     0.000016377365
       5       -0.000083675649     0.000013620682     0.000002402563
       6       -0.001421293748     0.001692471316     0.001708613635
       7       -0.000036531547     0.000037561699     0.000031355085
       8        0.000015474180    -0.000009622756     0.000018015303
       9        0.000032481627     0.000014137286    -0.000002522335
      10       -0.000003900964     0.000018179591    -0.000040970002

  **** Optimization is complete! (in 5 steps) ****
    Final optimized geometry and variables:
    Molecular point group: c1

    Geometry (in Angstrom), charge = 0, multiplicity = 1:

    H           -1.606421489270    -0.507325515336     0.819632871575
    N           -1.221046423325    -0.275490751063    -0.068071120106
    C           -0.033096877673     0.557237096471     0.047658649828
    H           -1.051074135011    -1.116070942242    -0.575176339058
    C            1.285382937083    -0.202447698057    -0.004718099876
    H           -0.054046020906     1.314652135139    -0.729411577685
    H           -0.096981959491     1.102041336322     0.983258282028
    H            1.380264229179    -0.746548673538    -0.939421876542
    H            2.129078702599     0.475351236287     0.068551624923
    H            1.354071800091    -0.918751171387     0.807085228817

  Mulliken Charges: (a.u.)
   Center  Symbol    Alpha    Beta     Spin     Total
       1     H     0.42640  0.42640  0.00000  0.14721
       2     N     3.69679  3.69679  0.00000 -0.39359
       3     C     3.01837  3.01837  0.00000 -0.03673
       4     H     0.42754  0.42754  0.00000  0.14493
       5     C     3.14065  3.14065  0.00000 -0.28131
       6     H     0.45946  0.45946  0.00000  0.08107
       7     H     0.45983  0.45983  0.00000  0.08034
       8     H     0.45791  0.45791  0.00000  0.08418
       9     H     0.45525  0.45525  0.00000  0.08949
      10     H     0.45780  0.45780  0.00000  0.08441

   Total alpha = 13.00000, Total beta = 13.00000, Total charge =  0.00000
