  ==> Input File <==

--------------------------------------------------------------------------
set {
	reference rhf
	basis 6-31G*
}

set_num_threads( 4 )
memory 2 gb

molecule MOL {
0 1

H	 -1.087310	 1.934189	 1.455840
C	 -0.888895	 1.081337	 0.837228
C	 -1.918698	 0.465389	 0.051329
C	 0.339982	 0.552907	 0.773661
H	 -2.916291	 0.866605	 0.080954
C	 -1.646413	 -0.600572	 -0.714864
H	 1.165212	 0.954523	 1.330533
N	 0.640212	 -0.532897	 -0.000111
H	 -2.390304	 -1.086809	 -1.315326
C	 -0.309095	 -1.175373	 -0.783895
C	 2.010177	 -1.032049	 0.000042
O	 -0.023701	 -2.132266	 -1.459995
H	 2.187698	 -1.635381	 -0.882279
H	 2.677579	 -0.189247	 -0.001871
H	 2.188882	 -1.632203	 0.884288

	symmetry c1
}
set optking {
	frozen_dihedral = ("
		10 8 11 13
	")
}

ee = optimize('scf')
oeprop('DIPOLE', 'QUADRUPOLE', 'MULLIKEN_CHARGES')
f=open( 'psi4out.xyz', 'w' )
f.write( "15  " )
f.write( str(ee) + "\n" )
f.write( MOL.save_string_xyz() )
f.close()
--------------------------------------------------------------------------

    Molecular point group: c1
  Charge       = 0
  Multiplicity = 1
  Basis Set: 6-31G*
  Basis Set:
  @DF-RHF Final Energy:  -360.59568269394742
    Total Energy =                       -360.5956826939474240
    Molecular point group: c1
  Basis Set: 6-31G*
  Basis Set:
  Basis Set: 6-31G*
  Basis Set:
  @DF-RHF Final Energy:  -360.59593542687998
    Total Energy =                       -360.5959354268800325
  Basis Set: 6-31G*
  Basis Set:
  Basis Set: 6-31G*
  Basis Set:
  @DF-RHF Final Energy:  -360.59595815098442
    Total Energy =                       -360.5959581509843019
  Basis Set: 6-31G*
  Basis Set:
  Basis Set: 6-31G*
  Basis Set:
  @DF-RHF Final Energy:  -360.59596894247039
    Total Energy =                       -360.5959689424702219
  Basis Set: 6-31G*
  Basis Set:
  Charge       = 0
  Multiplicity = 1
  Basis Set: 6-31G*
  Basis Set:

    Orbital Energies (a.u.)
    -----------------------

    Doubly Occupied:

       1A    -20.508684     2A    -15.621493     3A    -11.343059
       4A    -11.296880     5A    -11.264740     6A    -11.260424
       7A    -11.233571     8A    -11.229132     9A     -1.384451
      10A     -1.281016    11A     -1.114824    12A     -1.025851
      13A     -0.970040    14A     -0.872260    15A     -0.835411
      16A     -0.715525    17A     -0.698315    18A     -0.660831
      19A     -0.647965    20A     -0.621912    21A     -0.606634
      22A     -0.572628    23A     -0.552156    24A     -0.547046
      25A     -0.526432    26A     -0.476478    27A     -0.413923
      28A     -0.405686    29A     -0.305074

  @DF-RHF Final Energy:  -360.59597272610233

   => Energetics <=

    Nuclear Repulsion Energy =            357.6588214696845398
    One-Electron Energy =               -1198.5247046886752287
    Two-Electron Energy =                 480.2699104928885845
    DFT Exchange-Correlation Energy =       0.0000000000000000
    Empirical Dispersion Energy =           0.0000000000000000
    PCM Polarization Energy =               0.0000000000000000
    EFP Energy =                            0.0000000000000000
    Total Energy =                       -360.5959727261021044
    Molecular point group: c1
  Basis Set: 6-31G*
  Basis Set:

  -Total Gradient:
     Atom            X                  Y                   Z
    ------   -----------------  -----------------  -----------------
       1       -0.000002119319    -0.000005507374     0.000004440018
       2        0.000026333966    -0.000021993397     0.000009165750
       3       -0.000024436020    -0.000003577203    -0.000032820007
       4       -0.000028568866     0.000054856465    -0.000027192043
       5       -0.000005102339     0.000000011261     0.000002590160
       6       -0.000032743335     0.000019165614     0.000023426167
       7        0.000012093109    -0.000017306433     0.000002904816
       8       -0.000171447243    -0.000518025740     0.000537428561
       9        0.000002649107    -0.000001605859     0.000005594415
      10        0.000103223396     0.000295817255    -0.000321623832
      11        0.000226596492     0.000655933624    -0.000426784476
      12        0.000040516198     0.000016773285     0.000031614115
      13       -0.000107608106    -0.000451811934     0.000172875135
      14       -0.000036170895    -0.000035838888     0.000004133931
      15       -0.000003216144     0.000013109327     0.000014247291

  **** Optimization is complete! (in 5 steps) ****
    Final optimized geometry and variables:
    Molecular point group: c1

    Geometry (in Angstrom), charge = 0, multiplicity = 1:

    H           -0.930209346981     2.392967100875     1.643576936563
    C           -0.726665378371     1.543803501701     1.021657100635
    C           -1.752045654793     0.927899563468     0.230275529002
    C            0.505999786482     1.023771831607     0.956019669454
    H           -2.750897793710     1.325987773466     0.258971108954
    C           -1.474201352825    -0.133945093548    -0.539897640223
    H            1.327902997229     1.428486124779     1.515013178461
    N            0.812920258416    -0.053848370526     0.173965482488
    H           -2.214875145854    -0.621379615214    -1.143516543587
    C           -0.136056829374    -0.706903026461    -0.600583372367
    C            2.177651171604    -0.567117229330     0.176638623537
    O            0.154759930595    -1.672505451686    -1.261903218336
    H            2.317392251525    -1.175918827763    -0.699096240093
    H            2.875534761368     0.259711693113     0.164540449472
    H            2.356884796176    -1.173409459135     1.057290015025

  Mulliken Charges: (a.u.)
   Center  Symbol    Alpha    Beta     Spin     Total
       1     H     0.39290  0.39290  0.00000  0.21420
       2     C     3.16172  3.16172  0.00000 -0.32345
       3     C     3.05826  3.05826  0.00000 -0.11652
       4     C     2.92102  2.92102  0.00000  0.15796
       5     H     0.39085  0.39085  0.00000  0.21830
       6     C     3.16969  3.16969  0.00000 -0.33939
       7     H     0.38793  0.38793  0.00000  0.22414
       8     N     3.86525  3.86525  0.00000 -0.73050
       9     H     0.38637  0.38637  0.00000  0.22726
      10     C     2.59453  2.59453  0.00000  0.81094
      11     C     3.15159  3.15159  0.00000 -0.30317
      12     O     4.32195  4.32195  0.00000 -0.64389
      13     H     0.37727  0.37727  0.00000  0.24547
      14     H     0.41302  0.41302  0.00000  0.17396
      15     H     0.40766  0.40766  0.00000  0.18468

   Total alpha = 29.00000, Total beta = 29.00000, Total charge =  0.00000
