  ==> Input File <==

--------------------------------------------------------------------------
set {
	reference rhf
	basis cc-pvtz
}

set_num_threads( 4 )
memory 2 gb

molecule MOL {
0 1

H	 1.886857	 -0.703911	 -2.402733
C	 1.160351	 -0.899152	 -1.624691
C	 1.322304	 0.099773	 -0.484271
H	 0.173359	 -0.834055	 -2.068515
H	 1.307480	 -1.916850	 -1.281202
C	 0.308557	 -0.162619	 0.622645
H	 1.187881	 1.109724	 -0.851235
H	 2.320388	 0.033145	 -0.069147
N	 -1.069352	 -0.004081	 0.085342
H	 0.371632	 -1.172932	 0.991288
H	 0.400391	 0.548875	 1.426218
O	 -1.584901	 -0.965470	 -0.377818
O	 -1.548033	 1.079343	 0.130056

	symmetry c1
}
set optking {
	frozen_dihedral = ("
		7 3 6 9
	")
}

ee = optimize('scf')
oeprop('DIPOLE', 'QUADRUPOLE', 'MULLIKEN_CHARGES')
f=open( 'psi4out.xyz', 'w' )
f.write( "13  " )
f.write( str(ee) + "\n" )
f.write( MOL.save_string_xyz() )
f.close()
--------------------------------------------------------------------------

    Molecular point group: c1
  Charge       = 0
  Multiplicity = 1
  Basis Set: CC-PVTZ
  Basis Set:
  @DF-RHF Final Energy:  -321.85879567590757
    Total Energy =                       -321.8587956759076292
    Molecular point group: c1
  Basis Set: CC-PVTZ
  Basis Set:
  Basis Set: CC-PVTZ
  Basis Set:
  @DF-RHF Final Energy:  -321.85988901722385
    Total Energy =                       -321.8598890172240203
  Basis Set: CC-PVTZ
  Basis Set:
  Basis Set: CC-PVTZ
  Basis Set:
  @DF-RHF Final Energy:  -321.86041732350793
    Total Energy =                       -321.8604173235081589
  Basis Set: CC-PVTZ
  Basis Set:
  Basis Set: CC-PVTZ
  Basis Set:
  @DF-RHF Final Energy:  -321.86066123688403
    Total Energy =                       -321.8606612368839706
  Basis Set: CC-PVTZ
  Basis Set:
  @DF-RHF Final Energy:  -321.86096202008764
    Total Energy =                       -321.8609620200876975
  @DF-RHF Final Energy:  -321.86118986575070
    Total Energy =                       -321.8611898657509300
  Basis Set: CC-PVTZ
  Basis Set:
  @DF-RHF Final Energy:  -321.86127018290051
    Total Energy =                       -321.8612701829001708
  Basis Set: CC-PVTZ
  Basis Set:
  Basis Set: CC-PVTZ
  Basis Set:
  @DF-RHF Final Energy:  -321.86129582686993
    Total Energy =                       -321.8612958268702187
  Basis Set: CC-PVTZ
  Basis Set:
  Basis Set: CC-PVTZ
  Basis Set:
  @DF-RHF Final Energy:  -321.86129986549616
    Total Energy =                       -321.8612998654963349
  Basis Set: CC-PVTZ
  Basis Set:
  Charge       = 0
  Multiplicity = 1
  Basis Set: CC-PVTZ
  Basis Set:

    Orbital Energies (a.u.)
    -----------------------

    Doubly Occupied:

       1A    -20.593144     2A    -20.589202     3A    -15.837286
       4A    -11.297662     5A    -11.251843     6A    -11.229503
       7A     -1.636719     8A     -1.420950     9A     -1.132668
      10A     -1.021529    11A     -0.894465    12A     -0.823541
      13A     -0.760838    14A     -0.742084    15A     -0.729454
      16A     -0.651027    17A     -0.619917    18A     -0.595135
      19A     -0.532238    20A     -0.518365    21A     -0.512787
      22A     -0.487655    23A     -0.475140    24A     -0.454433

  @DF-RHF Final Energy:  -321.86130030600128

   => Energetics <=

    Nuclear Repulsion Energy =            253.2764590898278243
    One-Electron Energy =                -940.6603413707621257
    Two-Electron Energy =                 365.5225819749334732
    DFT Exchange-Correlation Energy =       0.0000000000000000
    Empirical Dispersion Energy =           0.0000000000000000
    PCM Polarization Energy =               0.0000000000000000
    EFP Energy =                            0.0000000000000000
    Total Energy =                       -321.8613003060008850
    Molecular point group: c1
  Basis Set: CC-PVTZ
  Basis Set:

  -Total Gradient:
     Atom            X                  Y                   Z
    ------   -----------------  -----------------  -----------------
       1        0.000004886442     0.000001415058     0.000013342716
       2        0.000006713082    -0.000018489103     0.000014834500
       3        0.000199502847     0.000172879695     0.000267683904
       4       -0.000017126513     0.000005539198    -0.000006072695
       5       -0.000006398648     0.000007548574    -0.000000776089
       6       -0.000037439129    -0.000229126625    -0.000159830506
       7       -0.000169713873    -0.000067676653    -0.000187906298
       8        0.000018317355     0.000008397855    -0.000008880993
       9       -0.000077584661     0.000029595097     0.000074058506
      10       -0.000029261332    -0.000019659165     0.000001552459
      11        0.000009413258     0.000001959298    -0.000008182591
      12        0.000051003031     0.000006363577     0.000013713746
      13        0.000047688138     0.000101253193    -0.000013536657

  **** Optimization is complete! (in 10 steps) ****
    Final optimized geometry and variables:
    Molecular point group: c1

    Geometry (in Angstrom), charge = 0, multiplicity = 1:

    H            2.261086705490    -0.473884639481    -2.149904505644
    C            1.496846000266    -0.711069242274    -1.420840305668
    C            1.590087325918     0.238000069516    -0.230619499752
    H            0.536087963771    -0.634636934573    -1.915725092188
    H            1.634126290106    -1.742039512869    -1.114996202090
    C            0.580765761753    -0.057655493327     0.869091093813
    H            1.466002725369     1.262355643416    -0.554056070116
    H            2.570913038989     0.163511793912     0.225803089911
    N           -0.817246704342     0.129114277859     0.383854124730
    H            0.635396105975    -1.073023028209     1.222048657186
    H            0.686453329390     0.632690675485     1.692048169782
    O           -1.539605330330    -0.808795905708     0.414277963128
    O           -1.113431445687     1.211443825305     0.000127064123

  Mulliken Charges: (a.u.)
   Center  Symbol    Alpha    Beta     Spin     Total
       1     H     0.44503  0.44503  0.00000  0.10994
       2     C     3.14462  3.14462  0.00000 -0.28924
       3     C     3.09903  3.09903  0.00000 -0.19807
       4     H     0.44539  0.44539  0.00000  0.10921
       5     H     0.45254  0.45254  0.00000  0.09491
       6     C     3.04909  3.04909  0.00000 -0.09817
       7     H     0.43684  0.43684  0.00000  0.12632
       8     H     0.44521  0.44521  0.00000  0.10958
       9     N     3.27963  3.27963  0.00000  0.44073
      10     H     0.43175  0.43175  0.00000  0.13649
      11     H     0.42829  0.42829  0.00000  0.14342
      12     O     4.16825  4.16825  0.00000 -0.33649
      13     O     4.17432  4.17432  0.00000 -0.34865

   Total alpha = 24.00000, Total beta = 24.00000, Total charge = -0.00000
