                              Psi4 1.0.54 Driver

  ==> Input File <==

--------------------------------------------------------------------------
set {
	reference rhf
	basis cc-pvtz
}

set_num_threads( 4 )
memory 2 gb

molecule MOL {
0 1

H	 1.166964	 -1.062386	 0.758429
O	 1.324748	 -0.612467	 -0.052206
C	 0.706474	 0.636793	 -0.025501
C	 1.569812	 1.751341	 0.494172
H	 -0.164746	 0.534277	 0.610714
H	 0.338504	 0.908579	 -1.013139
C	 2.774699	 1.617816	 1.002824
H	 1.125889	 2.731063	 0.428393
H	 3.243370	 0.657235	 1.100818
H	 3.326897	 2.469819	 1.351004

	symmetry c1
}
set optking {
	frozen_dihedral = ("
		5 3 2 1
	")
}

ee,wfn = optimize('scf', return_wfn=True)
oeprop( wfn, 'DIPOLE', 'QUADRUPOLE', 'MULLIKEN_CHARGES')
f=open( 'psi4out.xyz', 'w' )
f.write( "10  " )
f.write( str(ee) + "\n" )
f.write( MOL.save_string_xyz() )
f.close()
--------------------------------------------------------------------------

    Molecular point group: c1
  Charge       = 0
  Multiplicity = 1
  Basis Set: CC-PVTZ
  Basis Set:
  @DF-RHF Final Energy:  -191.99627569191068
    Total Energy =                       -191.9962756919106823
    Molecular point group: c1
  Basis Set: CC-PVTZ
  Basis Set:
  Basis Set: CC-PVTZ
  Basis Set:
  @DF-RHF Final Energy:  -191.99683520666173
    Total Energy =                       -191.9968352066617285
  Basis Set: CC-PVTZ
  Basis Set:
  Basis Set: CC-PVTZ
  Basis Set:
  @DF-RHF Final Energy:  -191.99788036817338
    Total Energy =                       -191.9978803681733552
  Basis Set: CC-PVTZ
  Basis Set:
  Basis Set: CC-PVTZ
  Basis Set:
  @DF-RHF Final Energy:  -191.99791315689419
    Total Energy =                       -191.9979131568941852
  Basis Set: CC-PVTZ
  Basis Set:
  Basis Set: CC-PVTZ
  Basis Set:
  @DF-RHF Final Energy:  -191.99791529035471
    Total Energy =                       -191.9979152903547686
  Basis Set: CC-PVTZ
  Basis Set:
  Charge       = 0
  Multiplicity = 1
  Basis Set: CC-PVTZ
  Basis Set:

    Orbital Energies (a.u.)
    -----------------------

    Doubly Occupied:

       1A    -20.554216     2A    -11.278553     3A    -11.225739
       4A    -11.211521     5A     -1.374135     6A     -1.059408
       7A     -0.929672     8A     -0.765737     9A     -0.700962
      10A     -0.659630    11A     -0.617219    12A     -0.576724
      13A     -0.524439    14A     -0.506161    15A     -0.449498
      16A     -0.364917

  @DF-RHF Final Energy:  -191.99791542649263

   => Energetics <=

    Nuclear Repulsion Energy =            119.4220004996006423
    One-Electron Energy =                -497.2427670459987326
    Two-Electron Energy =                 185.8228511199055220
    DFT Exchange-Correlation Energy =       0.0000000000000000
    Empirical Dispersion Energy =           0.0000000000000000
    PCM Polarization Energy =               0.0000000000000000
    EFP Energy =                            0.0000000000000000
    Total Energy =                       -191.9979154264925683
    Molecular point group: c1
  Basis Set: CC-PVTZ
  Basis Set:

  -Total Gradient:
     Atom            X                  Y                   Z
    ------   -----------------  -----------------  -----------------
       1       -0.001401219642    -0.000494117749    -0.000866145063
       2        0.001933363163     0.000645250970     0.001436570204
       3       -0.001287213180    -0.000229094708    -0.001853295982
       4       -0.000012746843    -0.000025492805     0.000003005453
       5        0.000759245335     0.000104958035     0.001285139223
       6        0.000007348165     0.000002898659     0.000005333161
       7       -0.000026042717    -0.000008572509     0.000036914853
       8        0.000012287210    -0.000009830506    -0.000012269605
       9        0.000009025257     0.000009234824    -0.000019234397
      10        0.000005953253     0.000004765789    -0.000016017848

  **** Optimization is complete! (in 6 steps) ****
    Final optimized geometry and variables:
    Molecular point group: c1

    Geometry (in Angstrom), charge = 0, multiplicity = 1:

    H           -0.496987485375    -1.874124483255     0.082294065456
    O           -0.279573590018    -1.281828249847    -0.612797723050
    C           -0.867730854252    -0.035241254182    -0.385982720604
    C            0.018604704756     0.930765871697     0.348995070920
    H           -1.797736997638    -0.139576253666     0.168117175502
    H           -1.124102393748     0.382520425932    -1.353019043487
    C            1.247549078367     0.691384015663     0.747501308943
    H           -0.428867031402     1.892022253898     0.542856934420
    H            1.724091608883    -0.250731887485     0.557795076843
    H            1.816684496708     1.438385237555     1.267535934209

  Mulliken Charges: (a.u.)
   Center  Symbol    Alpha    Beta     Spin     Total
       1     H     0.39091  0.39091  0.00000  0.21817
       2     O     4.19886  4.19886  0.00000 -0.39772
       3     C     2.95134  2.95134  0.00000  0.09731
       4     C     3.08220  3.08220  0.00000 -0.16441
       5     H     0.46947  0.46947  0.00000  0.06106
       6     H     0.45579  0.45579  0.00000  0.08842
       7     C     3.17707  3.17707  0.00000 -0.35414
       8     H     0.42393  0.42393  0.00000  0.15214
       9     H     0.42160  0.42160  0.00000  0.15679
      10     H     0.42881  0.42881  0.00000  0.14237

   Total alpha = 16.00000, Total beta = 16.00000, Total charge =  0.00000

*** Psi4 exiting successfully. Buy a developer a beer!
