                              Psi4 1.0.54 Driver

  ==> Input File <==

--------------------------------------------------------------------------
set {
	reference rhf
	basis cc-pvtz
}

set_num_threads( 4 )
memory 2 gb

molecule MOL {
0 1

H	 3.721907	 -0.933076	 -0.066039
O	 2.824271	 -1.154299	 0.131461
C	 2.076458	 -0.067370	 -0.038225
C	 0.626018	 -0.337582	 0.258241
O	 2.538288	 0.965419	 -0.381593
C	 -0.267326	 0.883135	 0.076490
H	 0.325620	 -1.161483	 -0.378003
H	 0.574537	 -0.713685	 1.275261
C	 -1.726822	 0.642622	 0.463839
H	 -0.210803	 1.217591	 -0.953497
H	 0.129920	 1.693110	 0.675679
C	 -2.638519	 0.208702	 -0.682704
H	 -2.118457	 1.562976	 0.886716
H	 -1.773418	 -0.097555	 1.259712
C	 -4.098881	 0.086258	 -0.259825
H	 -2.557687	 0.927452	 -1.493814
H	 -2.308175	 -0.743969	 -1.084258
H	 -4.723758	 -0.220262	 -1.090642
H	 -4.479661	 1.032420	 0.109608
H	 -4.216797	 -0.647384	 0.530757

	symmetry c1
}
set optking {
	frozen_dihedral = ("
		12 9 6 10
	")
}

ee,wfn = optimize('scf', return_wfn=True)
oeprop( wfn, 'DIPOLE', 'QUADRUPOLE', 'MULLIKEN_CHARGES')
f=open( 'psi4out.xyz', 'w' )
f.write( "20  " )
f.write( str(ee) + "\n" )
f.write( MOL.save_string_xyz() )
f.close()
--------------------------------------------------------------------------

    Molecular point group: c1
  Charge       = 0
  Multiplicity = 1
  Basis Set: CC-PVTZ
  Basis Set:
  @DF-RHF Final Energy:  -384.09281975096314
    Total Energy =                       -384.0928197509632582
    Molecular point group: c1
  Basis Set: CC-PVTZ
  Basis Set:
  Basis Set: CC-PVTZ
  Basis Set:
  @DF-RHF Final Energy:  -384.09334762334237
    Total Energy =                       -384.0933476233423676
  Basis Set: CC-PVTZ
  Basis Set:
  Basis Set: CC-PVTZ
  Basis Set:
  @DF-RHF Final Energy:  -384.09328002511711
    Total Energy =                       -384.0932800251173376
  Basis Set: CC-PVTZ
  Basis Set:
  Basis Set: CC-PVTZ
  Basis Set:
  @DF-RHF Final Energy:  -384.09331731771948
    Total Energy =                       -384.0933173177194249
  Basis Set: CC-PVTZ
  Basis Set:
  @DF-RHF Final Energy:  -384.09339181133919
    Total Energy =                       -384.0933918113389609
  Basis Set: CC-PVTZ
  Basis Set:
  @DF-RHF Final Energy:  -384.09340184515258
    Total Energy =                       -384.0934018451520160
  Basis Set: CC-PVTZ
  Basis Set:
  Basis Set: CC-PVTZ
  Basis Set:
  @DF-RHF Final Energy:  -384.09340666797817
    Total Energy =                       -384.0934066679785701
  Basis Set: CC-PVTZ
  Basis Set:
  Basis Set: CC-PVTZ
  Basis Set:
  @DF-RHF Final Energy:  -384.09340889940694
    Total Energy =                       -384.0934088994069953
  Basis Set: CC-PVTZ
  Basis Set:
  Charge       = 0
  Multiplicity = 1
  Basis Set: CC-PVTZ
  Basis Set:

    Orbital Energies (a.u.)
    -----------------------

    Doubly Occupied:

       1A    -20.603858     2A    -20.540497     3A    -11.373254
       4A    -11.238953     5A    -11.220892     6A    -11.218578
       7A    -11.217960     8A    -11.210154     9A     -1.477399
      10A     -1.368913    11A     -1.096890    12A     -1.042735
      13A     -0.960930    14A     -0.870293    15A     -0.812666
      16A     -0.784717    17A     -0.703610    18A     -0.692668
      19A     -0.666085    20A     -0.635487    21A     -0.607686
      22A     -0.595514    23A     -0.574531    24A     -0.557599
      25A     -0.542303    26A     -0.507415    27A     -0.498426
      28A     -0.484430    29A     -0.473687    30A     -0.468654
      31A     -0.457503    32A     -0.445359

  @DF-RHF Final Energy:  -384.09340910420451

   => Energetics <=

    Nuclear Repulsion Energy =            375.6012696883665285
    One-Electron Energy =               -1267.4900657646969648
    Two-Electron Energy =                 507.7953869721255842
    DFT Exchange-Correlation Energy =       0.0000000000000000
    Empirical Dispersion Energy =           0.0000000000000000
    PCM Polarization Energy =               0.0000000000000000
    EFP Energy =                            0.0000000000000000
    Total Energy =                       -384.0934091042048522
    Molecular point group: c1
  Basis Set: CC-PVTZ
  Basis Set:

  -Total Gradient:
     Atom            X                  Y                   Z
    ------   -----------------  -----------------  -----------------
       1       -0.000001983309     0.000003091465     0.000001107343
       2       -0.000008722593    -0.000004522289    -0.000001214866
       3        0.000005662678    -0.000011817987     0.000001644458
       4        0.000001158938    -0.000007015608    -0.000013700299
       5       -0.000001235429     0.000015365749     0.000002038522
       6       -0.000555113661     0.004772022844     0.000750863215
       7        0.000000627237    -0.000001787822     0.000005973465
       8        0.000003155982     0.000002628362     0.000008744131
       9        0.000759009243    -0.003882287970     0.000660799446
      10        0.000285083975    -0.003126104690    -0.000804362312
      11       -0.000003829647     0.000000221779    -0.000001265695
      12       -0.000489282398     0.002241648849    -0.000613600814
      13        0.000001652173     0.000001428631    -0.000002080535
      14        0.000001677875    -0.000000443375     0.000003625951
      15        0.000004011595    -0.000004662576     0.000003295438
      16       -0.000001120169     0.000002126088    -0.000003913822
      17       -0.000003327866     0.000001528666     0.000001560764
      18        0.000002198138    -0.000000269773    -0.000000910830
      19        0.000002141412     0.000000695377    -0.000001299638
      20       -0.000001764175    -0.000001845722     0.000002696079

  **** Optimization is complete! (in 9 steps) ****
    Final optimized geometry and variables:
    Molecular point group: c1

    Geometry (in Angstrom), charge = 0, multiplicity = 1:

    H            3.680082682994    -1.182812296335    -0.023141912911
    O            2.787137781879    -1.339683360840     0.244776942699
    C            2.078698974125    -0.238135551292     0.012220002426
    C            0.638429465110    -0.405795986820     0.414246198565
    O            2.563283307678     0.733962312307    -0.455112377328
    C           -0.213400860485     0.836704913411     0.177548252502
    H            0.254988779004    -1.262269698776    -0.130318742615
    H            0.631395642190    -0.693663242950     1.460316293698
    C           -1.689716654338     0.610883351224     0.531714418315
    H           -0.123773843636     1.112240814600    -0.866311566954
    H            0.195412268989     1.655913220750     0.754186917585
    C           -2.534548794898     0.108801974313    -0.638094089312
    H           -2.116806431515     1.547146260357     0.877562958634
    H           -1.770967711938    -0.079803757733     1.367019632399
    C           -3.988818572360    -0.146839405635    -0.257832344286
    H           -2.493430793153     0.840890916940    -1.438961230444
    H           -2.104777424527    -0.805067296339    -1.040181263148
    H           -4.564236913598    -0.485220580747    -1.111697891436
    H           -4.457840206138     0.755389297868     0.120502276193
    H           -4.064782385757    -0.905608821387     0.513913963513

  Mulliken Charges: (a.u.)
   Center  Symbol    Alpha    Beta     Spin     Total
       1     H     0.38242  0.38242  0.00000  0.23517
       2     O     4.16030  4.16030  0.00000 -0.32061
       3     C     2.80476  2.80476  0.00000  0.39048
       4     C     3.10878  3.10878  0.00000 -0.21757
       5     O     4.19142  4.19142  0.00000 -0.38284
       6     C     3.09348  3.09348  0.00000 -0.18697
       7     H     0.43845  0.43845  0.00000  0.12311
       8     H     0.43763  0.43763  0.00000  0.12473
       9     C     3.09936  3.09936  0.00000 -0.19871
      10     H     0.44619  0.44619  0.00000  0.10762
      11     H     0.43929  0.43929  0.00000  0.12142
      12     C     3.08200  3.08200  0.00000 -0.16399
      13     H     0.44502  0.44502  0.00000  0.10995
      14     H     0.45592  0.45592  0.00000  0.08815
      15     C     3.15040  3.15040  0.00000 -0.30080
      16     H     0.45176  0.45176  0.00000  0.09648
      17     H     0.45606  0.45606  0.00000  0.08787
      18     H     0.44765  0.44765  0.00000  0.10470
      19     H     0.45417  0.45417  0.00000  0.09167
      20     H     0.45492  0.45492  0.00000  0.09016

   Total alpha = 32.00000, Total beta = 32.00000, Total charge =  0.00000

*** Psi4 exiting successfully. Buy a developer a beer!
