  ==> Input File <==

--------------------------------------------------------------------------
set {
	reference rhf
	basis 6-31G*
}

set_num_threads( 1 )
memory 2 gb

molecule MOL {
0 1

O	 2.204373	 0.643602	 0.942767
C	 1.705091	 0.115954	 0.001797
C	 0.381791	 -0.609817	 0.001258
O	 2.261824	 0.101256	 -1.202765
C	 -0.823008	 0.326187	 0.001381
H	 0.371250	 -1.265087	 -0.865474
H	 0.370908	 -1.265746	 0.867490
C	 -2.149452	 -0.435131	 -0.000098
H	 -0.770201	 0.977095	 -0.865636
H	 -0.771220	 0.975655	 0.869608
C	 -3.368779	 0.488503	 -0.000883
H	 -2.193746	 -1.087250	 -0.871175
H	 -2.195311	 -1.087803	 0.870418
C	 -4.693822	 -0.272754	 -0.001129
H	 -3.325798	 1.139422	 -0.871284
H	 -3.326423	 1.139959	 0.869145
H	 -4.781274	 -0.907928	 -0.878124
H	 -5.538651	 0.408946	 -0.001420
H	 -4.781694	 -0.907783	 0.875984
C	 3.511668	 0.752194	 -1.341057
H	 3.423123	 1.800878	 -1.096211
H	 3.794078	 0.632173	 -2.375327
H	 4.250132	 0.298094	 -0.696099

	symmetry c1
}
set optking {
	frozen_dihedral = ("
		15 11 8 12,
		9 5 8 12,
		9 5 3 6,
		1 2 4 20
	")
}

ee = energy('scf')
oeprop('DIPOLE', 'QUADRUPOLE', 'MULLIKEN_CHARGES')
f=open( 'psi4out.xyz', 'w' )
f.write( "23  " )
f.write( str(ee) + "\n" )
f.write( MOL.save_string_xyz() )
f.close()
--------------------------------------------------------------------------

    Molecular point group: c1

    Geometry (in Angstrom), charge = 0, multiplicity = 1:

       Center              X                  Y                   Z               Mass
    ------------   -----------------  -----------------  -----------------  -----------------
           O          2.276607090208     0.511757764288     1.130501472102    15.994914619560
           C          1.777325090208    -0.015890235712     0.189531472102    12.000000000000
           C          0.454025090208    -0.741661235712     0.188992472102    12.000000000000
           O          2.334058090208    -0.030588235712    -1.015030527898    15.994914619560
           C         -0.750773909792     0.194342764288     0.189115472102    12.000000000000
           H          0.443484090208    -1.396931235712    -0.677739527898     1.007825032070
           H          0.443142090208    -1.397590235712     1.055224472102     1.007825032070
           C         -2.077217909792    -0.566975235712     0.187636472102    12.000000000000
           H         -0.697966909792     0.845250764288    -0.677901527898     1.007825032070
           H         -0.698985909792     0.843810764288     1.057342472102     1.007825032070
           C         -3.296544909792     0.356658764288     0.186851472102    12.000000000000
           H         -2.121511909792    -1.219094235712    -0.683440527898     1.007825032070
           H         -2.123076909792    -1.219647235712     1.058152472102     1.007825032070
           C         -4.621587909792    -0.404598235712     0.186605472102    12.000000000000
           H         -3.253563909792     1.007577764288    -0.683549527898     1.007825032070
           H         -3.254188909792     1.008114764288     1.056879472102     1.007825032070
           H         -4.709039909792    -1.039772235712    -0.690389527898     1.007825032070
           H         -5.466416909792     0.277101764288     0.186314472102     1.007825032070
           H         -4.709459909792    -1.039627235712     1.063718472102     1.007825032070
           C          3.583902090208     0.620349764288    -1.153322527898    12.000000000000
           H          3.495357090208     1.669033764288    -0.908476527898     1.007825032070
           H          3.866312090208     0.500328764288    -2.187592527898     1.007825032070
           H          4.322366090208     0.166249764288    -0.508364527898     1.007825032070

  Charge       = 0
  Multiplicity = 1
  Basis Set: 6-31G*
  Basis Set:

    Orbital Energies (a.u.)
    -----------------------

    Doubly Occupied:

       1A    -20.604465     2A    -20.543054     3A    -11.370964
       4A    -11.280120     5A    -11.233152     6A    -11.228928
       7A    -11.222042     8A    -11.219785     9A    -11.212011
      10A     -1.468678    11A     -1.361281    12A     -1.097291
      13A     -1.045465    14A     -0.986404    15A     -0.933751
      16A     -0.847472    17A     -0.798973    18A     -0.771917
      19A     -0.693617    20A     -0.679978    21A     -0.672389
      22A     -0.653016    23A     -0.605605    24A     -0.597312
      25A     -0.579472    26A     -0.571863    27A     -0.540636
      28A     -0.533802    29A     -0.523957    30A     -0.508184
      31A     -0.488867    32A     -0.476318    33A     -0.469810
      34A     -0.466646    35A     -0.453413    36A     -0.428940

  @DF-RHF Final Energy:  -422.97398856401634

   => Energetics <=

    Nuclear Repulsion Energy =            453.1045122057113872
    One-Electron Energy =               -1473.8179383205183512
    Two-Electron Energy =                 597.7394375507918767
    DFT Exchange-Correlation Energy =       0.0000000000000000
    Empirical Dispersion Energy =           0.0000000000000000
    PCM Polarization Energy =               0.0000000000000000
    EFP Energy =                            0.0000000000000000
    Total Energy =                       -422.9739885640150305

  Mulliken Charges: (a.u.)
   Center  Symbol    Alpha    Beta     Spin     Total
       1     O     4.28535  4.28535  0.00000 -0.57071
       2     C     2.61466  2.61466  0.00000  0.77068
       3     C     3.19881  3.19881  0.00000 -0.39762
       4     O     4.30242  4.30242  0.00000 -0.60484
       5     C     3.16253  3.16253  0.00000 -0.32507
       6     H     0.40242  0.40242  0.00000  0.19515
       7     H     0.40188  0.40188  0.00000  0.19625
       8     C     3.15279  3.15279  0.00000 -0.30558
       9     H     0.41430  0.41430  0.00000  0.17139
      10     H     0.40731  0.40731  0.00000  0.18537
      11     C     3.15257  3.15257  0.00000 -0.30514
      12     H     0.42166  0.42166  0.00000  0.15669
      13     H     0.42084  0.42084  0.00000  0.15832
      14     C     3.23990  3.23990  0.00000 -0.47979
      15     H     0.42186  0.42186  0.00000  0.15629
      16     H     0.42075  0.42075  0.00000  0.15849
      17     H     0.42135  0.42135  0.00000  0.15729
      18     H     0.41803  0.41803  0.00000  0.16394
      19     H     0.42095  0.42095  0.00000  0.15809
      20     C     3.09308  3.09308  0.00000 -0.18617
      21     H     0.40904  0.40904  0.00000  0.18191
      22     H     0.40872  0.40872  0.00000  0.18255
      23     H     0.40876  0.40876  0.00000  0.18249

   Total alpha = 36.00000, Total beta = 36.00000, Total charge = -0.00000
