  ==> Input File <==

--------------------------------------------------------------------------
set {
	reference rhf
	basis cc-pvtz
}

set_num_threads( 4 )
memory 2 gb

molecule MOL {
0 1

O	 -0.908029	 -0.802122	 2.164734
C	 -0.326325	 -0.967005	 1.146755
C	 0.912852	 -1.810028	 0.980582
O	 -0.695554	 -0.422406	 0.000602
C	 1.379344	 -2.460543	 2.272939
H	 1.681618	 -1.171133	 0.560151
H	 0.696357	 -2.552515	 0.220465
H	 1.609912	 -1.715702	 3.022785
H	 2.269366	 -3.050842	 2.091946
H	 0.615693	 -3.109649	 2.680033
C	 -1.852370	 0.402254	 0.000718
C	 -3.063338	 -0.501097	 -0.000437
H	 -1.831732	 1.039442	 -0.872158
H	 -1.832493	 1.038301	 0.874430
H	 -3.071944	 -1.133732	 -0.879113
H	 -3.966302	 0.097976	 -0.000483
H	 -3.072764	 -1.134834	 0.877435

	symmetry c1
}
set optking {
	frozen_dihedral = ("
		2 4 11 13
	")
}

ee = optimize('scf')
oeprop('DIPOLE', 'QUADRUPOLE', 'MULLIKEN_CHARGES')
f=open( 'psi4out.xyz', 'w' )
f.write( "17  " )
f.write( str(ee) + "\n" )
f.write( MOL.save_string_xyz() )
f.close()
--------------------------------------------------------------------------

    Molecular point group: c1
  Charge       = 0
  Multiplicity = 1
  Basis Set: CC-PVTZ
  Basis Set:
  @DF-RHF Final Energy:  -345.03749651390478
    Total Energy =                       -345.0374965139050119
    Molecular point group: c1
  Basis Set: CC-PVTZ
  Basis Set:
  Basis Set: CC-PVTZ
  Basis Set:
  @DF-RHF Final Energy:  -345.03925148486786
    Total Energy =                       -345.0392514848681458
  Basis Set: CC-PVTZ
  Basis Set:
  Basis Set: CC-PVTZ
  Basis Set:
  @DF-RHF Final Energy:  -345.03852775392642
    Total Energy =                       -345.0385277539262461
  Basis Set: CC-PVTZ
  Basis Set:
  Basis Set: CC-PVTZ
  Basis Set:
  @DF-RHF Final Energy:  -345.03951997596829
    Total Energy =                       -345.0395199759684601
  Basis Set: CC-PVTZ
  Basis Set:
  Basis Set: CC-PVTZ
  Basis Set:
  @DF-RHF Final Energy:  -345.03952726016320
    Total Energy =                       -345.0395272601632541
  Basis Set: CC-PVTZ
  Basis Set:
  Charge       = 0
  Multiplicity = 1
  Basis Set: CC-PVTZ
  Basis Set:

    Orbital Energies (a.u.)
    -----------------------

    Doubly Occupied:

       1A    -20.592908     2A    -20.532883     3A    -11.364407
       4A    -11.282847     5A    -11.235679     6A    -11.215806
       7A    -11.213802     8A     -1.469521     9A     -1.364945
      10A     -1.069699    11A     -1.028816    12A     -0.916816
      13A     -0.854451    14A     -0.760178    15A     -0.704704
      16A     -0.683187    17A     -0.662990    18A     -0.621642
      19A     -0.611625    20A     -0.570045    21A     -0.548126
      22A     -0.533503    23A     -0.521698    24A     -0.516556
      25A     -0.497640    26A     -0.491740    27A     -0.453573
      28A     -0.438731

  @DF-RHF Final Energy:  -345.03952791654717

   => Energetics <=

    Nuclear Repulsion Energy =            319.1829442607233887
    One-Electron Energy =               -1102.9279121942972779
    Two-Electron Energy =                 438.7054400170266035
    DFT Exchange-Correlation Energy =       0.0000000000000000
    Empirical Dispersion Energy =           0.0000000000000000
    PCM Polarization Energy =               0.0000000000000000
    EFP Energy =                            0.0000000000000000
    Total Energy =                       -345.0395279165472857
    Molecular point group: c1
  Basis Set: CC-PVTZ
  Basis Set:

  -Total Gradient:
     Atom            X                  Y                   Z
    ------   -----------------  -----------------  -----------------
       1        0.000006324410    -0.000002424115    -0.000006192473
       2       -0.000474539555    -0.000661968633    -0.000168168210
       3       -0.000051152615    -0.000037167377    -0.000014795024
       4        0.000651188504     0.000816261539     0.000119416804
       5        0.000018262486     0.000013697640     0.000010703380
       6        0.000007158236     0.000017244583     0.000008219062
       7        0.000011482928     0.000019141689    -0.000000651508
       8       -0.000002837544    -0.000005799673    -0.000002130432
       9       -0.000000285750    -0.000004321865     0.000001859441
      10       -0.000002482541    -0.000003210242    -0.000000446808
      11        0.000287288352     0.000518889460     0.000530201868
      12        0.000048644486    -0.000006747520     0.000011570633
      13       -0.000441846407    -0.000678982446    -0.000486623937
      14       -0.000017672807     0.000003387580    -0.000002720932
      15       -0.000007921308     0.000003328852     0.000015411517
      16       -0.000028813198     0.000016625830    -0.000010262209
      17       -0.000002797679    -0.000007955300    -0.000005391170

  **** Optimization is complete! (in 6 steps) ****
    Final optimized geometry and variables:
    Molecular point group: c1

    Geometry (in Angstrom), charge = 0, multiplicity = 1:

    O           -0.216363384555     0.111116417416     1.249678356548
    C            0.350435922396    -0.041009171726     0.221010734383
    C            1.596024039736    -0.870146125862     0.032920675773
    O           -0.033892474481     0.509034593138    -0.917748003724
    C            2.090499823803    -1.519486907749     1.315445741341
    H            2.350763536587    -0.221801295189    -0.398142034267
    H            1.375028809014    -1.612600240523    -0.725925634326
    H            2.324914724945    -0.774548294724     2.063977089269
    H            2.984021669971    -2.099152054314     1.118062174954
    H            1.340952127515    -2.178545645607     1.732674387803
    C           -1.207731044597     1.312437694774    -0.929038168671
    C           -2.469475561904     0.475474266691    -0.989100752880
    H           -1.113376210046     1.915359780590    -1.819579737740
    H           -1.207452616535     1.956237631777    -0.062895376825
    H           -2.452889765424    -0.177430323117    -1.853568284276
    H           -3.331654303407     1.127629509406    -1.072702059574
    H           -2.582085359459    -0.124516734676    -0.097229452811

  Mulliken Charges: (a.u.)
   Center  Symbol    Alpha    Beta     Spin     Total
       1     O     4.19927  4.19927  0.00000 -0.39853
       2     C     2.80201  2.80201  0.00000  0.39598
       3     C     3.09388  3.09388  0.00000 -0.18775
       4     O     4.15659  4.15659  0.00000 -0.31319
       5     C     3.13983  3.13983  0.00000 -0.27966
       6     H     0.44137  0.44137  0.00000  0.11725
       7     H     0.44218  0.44218  0.00000  0.11565
       8     H     0.44847  0.44847  0.00000  0.10306
       9     H     0.45053  0.45053  0.00000  0.09893
      10     H     0.44870  0.44870  0.00000  0.10259
      11     C     2.98751  2.98751  0.00000  0.02498
      12     C     3.15056  3.15056  0.00000 -0.30112
      13     H     0.44460  0.44460  0.00000  0.11079
      14     H     0.44995  0.44995  0.00000  0.10010
      15     H     0.45247  0.45247  0.00000  0.09505
      16     H     0.45110  0.45110  0.00000  0.09781
      17     H     0.44097  0.44097  0.00000  0.11806

   Total alpha = 28.00000, Total beta = 28.00000, Total charge = -0.00000
