  ==> Input File <==

--------------------------------------------------------------------------
set {
	reference rhf
	basis 6-31G*
}

set_num_threads( 4 )
memory 2 gb

molecule MOL {
0 1

H	 3.463771	 0.168298	 -0.756243
C	 2.752674	 -0.045734	 0.033351
C	 1.322923	 0.120767	 -0.479465
H	 2.934561	 -1.059086	 0.377456
H	 2.958358	 0.631174	 0.856809
C	 0.306652	 -0.176050	 0.621399
H	 1.144658	 -0.551717	 -1.312180
H	 1.166477	 1.131798	 -0.836680
N	 -1.068537	 -0.011044	 0.085269
H	 0.372515	 -1.192590	 0.973735
H	 0.391664	 0.520566	 1.441230
O	 -1.725613	 -0.995420	 -0.058353
O	 -1.410221	 1.097220	 -0.195851

	symmetry c1
}
set optking {
	frozen_dihedral = ("
		12 9 6 3
	")
}

ee = optimize('scf')
oeprop('DIPOLE', 'QUADRUPOLE', 'MULLIKEN_CHARGES')
f=open( 'psi4out.xyz', 'w' )
f.write( "13  " )
f.write( str(ee) + "\n" )
f.write( MOL.save_string_xyz() )
f.close()
--------------------------------------------------------------------------

    Molecular point group: c1
  Charge       = 0
  Multiplicity = 1
  Basis Set: 6-31G*
  Basis Set:
  @DF-RHF Final Energy:  -321.73553043296079
    Total Energy =                       -321.7355304329610703
    Molecular point group: c1
  Basis Set: 6-31G*
  Basis Set:
  Basis Set: 6-31G*
  Basis Set:
  @DF-RHF Final Energy:  -321.72996619212836
    Total Energy =                       -321.7299661921284155
  Basis Set: 6-31G*
  Basis Set:
  Basis Set: 6-31G*
  Basis Set:
  @DF-RHF Final Energy:  -321.73536728315025
    Total Energy =                       -321.7353672831500262
  Basis Set: 6-31G*
  Basis Set:
  Basis Set: 6-31G*
  Basis Set:
  @DF-RHF Final Energy:  -321.73556952231263
    Total Energy =                       -321.7355695223125167
  Basis Set: 6-31G*
  Basis Set:
  Basis Set: 6-31G*
  Basis Set:
  @DF-RHF Final Energy:  -321.73556890487134
    Total Energy =                       -321.7355689048714567
  Basis Set: 6-31G*
  Basis Set:
  Basis Set: 6-31G*
  Basis Set:
  @DF-RHF Final Energy:  -321.73557143995572
    Total Energy =                       -321.7355714399557201
  Basis Set: 6-31G*
  Basis Set:
  Charge       = 0
  Multiplicity = 1
  Basis Set: 6-31G*
  Basis Set:

    Orbital Energies (a.u.)
    -----------------------

    Doubly Occupied:

       1A    -20.602596     2A    -20.598899     3A    -15.847112
       4A    -11.299375     5A    -11.256228     6A    -11.239719
       7A     -1.630714     8A     -1.416157     9A     -1.135067
      10A     -1.028396    11A     -0.884251    12A     -0.832414
      13A     -0.758793    14A     -0.735687    15A     -0.723321
      16A     -0.670993    17A     -0.604730    18A     -0.587721
      19A     -0.550817    20A     -0.522066    21A     -0.513848
      22A     -0.483942    23A     -0.473588    24A     -0.448066

  @DF-RHF Final Energy:  -321.73557148129714

   => Energetics <=

    Nuclear Repulsion Energy =            247.3402930603536731
    One-Electron Energy =                -928.4627283173279011
    Two-Electron Energy =                 359.3868637756770568
    DFT Exchange-Correlation Energy =       0.0000000000000000
    Empirical Dispersion Energy =           0.0000000000000000
    PCM Polarization Energy =               0.0000000000000000
    EFP Energy =                            0.0000000000000000
    Total Energy =                       -321.7355714812971428
    Molecular point group: c1
  Basis Set: 6-31G*
  Basis Set:

  -Total Gradient:
     Atom            X                  Y                   Z
    ------   -----------------  -----------------  -----------------
       1        0.000005245023     0.000002376668     0.000003022061
       2        0.000004582318     0.000003965181    -0.000006295495
       3        0.000000942491     0.000057693157     0.000020770445
       4        0.000004802215    -0.000002858052    -0.000003413780
       5       -0.000005304864    -0.000004130810     0.000000461851
       6       -0.000018744461    -0.000054926070     0.000008891505
       7        0.000004935169    -0.000001762249     0.000001257102
       8       -0.000000717489    -0.000004517836    -0.000005757915
       9        0.000048279804     0.000012340389    -0.000103010201
      10       -0.000008765740     0.000004193153    -0.000006942030
      11        0.000006611738    -0.000002198962     0.000010005056
      12       -0.000043369084     0.000008357354     0.000075989864
      13        0.000001502884    -0.000018531925     0.000005021537

  **** Optimization is complete! (in 7 steps) ****
    Final optimized geometry and variables:
    Molecular point group: c1

    Geometry (in Angstrom), charge = 0, multiplicity = 1:

    H            3.471052098544     0.168306636468    -0.753635218252
    C            2.756632698770    -0.045858500149     0.032916969655
    C            1.329032100051     0.125159160601    -0.484707632562
    H            2.935837364062    -1.060023060268     0.376116583406
    H            2.960832155480     0.629246080841     0.858320395717
    C            0.309926764452    -0.171354365572     0.612452442782
    H            1.153981268459    -0.546389181510    -1.319387285260
    H            1.175536840329     1.135695386859    -0.842168916564
    N           -1.069605856319    -0.012253122154     0.083387285101
    H            0.376898313274    -1.183889714321     0.975000292386
    H            0.392185487905     0.530380053077     1.429498133201
    O           -1.726369452219    -0.996837986827    -0.056619720043
    O           -1.420455829685     1.097210880821    -0.182520474096

  Mulliken Charges: (a.u.)
   Center  Symbol    Alpha    Beta     Spin     Total
       1     H     0.40733  0.40733  0.00000  0.18535
       2     C     3.24834  3.24834  0.00000 -0.49669
       3     C     3.17281  3.17281  0.00000 -0.34563
       4     H     0.41483  0.41483  0.00000  0.17033
       5     H     0.41485  0.41485  0.00000  0.17030
       6     C     3.08411  3.08411  0.00000 -0.16822
       7     H     0.40311  0.40311  0.00000  0.19377
       8     H     0.39508  0.39508  0.00000  0.20984
       9     N     3.22324  3.22324  0.00000  0.55352
      10     H     0.38696  0.38696  0.00000  0.22609
      11     H     0.38895  0.38895  0.00000  0.22209
      12     O     4.22874  4.22874  0.00000 -0.45749
      13     O     4.23163  4.23163  0.00000 -0.46326

   Total alpha = 24.00000, Total beta = 24.00000, Total charge =  0.00000
