  ==> Input File <==

--------------------------------------------------------------------------
set {
	reference rhf
	basis 6-31G*
}

set_num_threads( 4 )
memory 2 gb

molecule MOL {
0 1

H	 -2.365627	 -1.312883	 -0.379134
C	 -1.358347	 -1.274295	 0.019669
C	 -0.681945	 0.000119	 -0.470601
H	 -0.826096	 -2.155117	 -0.321105
H	 -1.409554	 -1.292283	 1.100109
C	 -1.357790	 1.274691	 0.020220
N	 0.739525	 -0.000142	 0.006128
H	 -0.594190	 0.000341	 -1.545128
H	 -2.364980	 1.313977	 -0.378631
H	 -0.825080	 2.155361	 -0.320114
H	 -1.409060	 1.292170	 1.100671
O	 1.518694	 0.679547	 -0.586746
O	 1.000618	 -0.682093	 0.950677

	symmetry c1
}
set optking {
	frozen_dihedral = ("
		12 7 3 8
	")
}

ee = optimize('scf')
oeprop('DIPOLE', 'QUADRUPOLE', 'MULLIKEN_CHARGES')
f=open( 'psi4out.xyz', 'w' )
f.write( "13  " )
f.write( str(ee) + "\n" )
f.write( MOL.save_string_xyz() )
f.close()
--------------------------------------------------------------------------

    Molecular point group: c1
  Charge       = 0
  Multiplicity = 1
  Basis Set: 6-31G*
  Basis Set:
  @DF-RHF Final Energy:  -321.73780185646615
    Total Energy =                       -321.7378018564660920
    Molecular point group: c1
  Basis Set: 6-31G*
  Basis Set:
  Basis Set: 6-31G*
  Basis Set:
  @DF-RHF Final Energy:  -321.73363366682764
    Total Energy =                       -321.7336336668276431
  Basis Set: 6-31G*
  Basis Set:
  Basis Set: 6-31G*
  Basis Set:
  @DF-RHF Final Energy:  -321.73733823399101
    Total Energy =                       -321.7373382339914087
  Basis Set: 6-31G*
  Basis Set:
  Basis Set: 6-31G*
  Basis Set:
  @DF-RHF Final Energy:  -321.73859340510171
    Total Energy =                       -321.7385934051017102
  Basis Set: 6-31G*
  Basis Set:
  Basis Set: 6-31G*
  Basis Set:
  @DF-RHF Final Energy:  -321.73861112640412
    Total Energy =                       -321.7386111264037254
  Basis Set: 6-31G*
  Basis Set:
  Basis Set: 6-31G*
  Basis Set:
  @DF-RHF Final Energy:  -321.73861325513900
    Total Energy =                       -321.7386132551389437
  Basis Set: 6-31G*
  Basis Set:
  Charge       = 0
  Multiplicity = 1
  Basis Set: 6-31G*
  Basis Set:

    Orbital Energies (a.u.)
    -----------------------

    Doubly Occupied:

       1A    -20.601479     2A    -20.597362     3A    -15.843481
       4A    -11.306804     5A    -11.248093     6A    -11.241256
       7A     -1.628886     8A     -1.414243     9A     -1.143244
      10A     -0.972561    11A     -0.958202    12A     -0.813443
      13A     -0.755155    14A     -0.726248    15A     -0.721874
      16A     -0.646617    17A     -0.593481    18A     -0.587513
      19A     -0.572022    20A     -0.528844    21A     -0.522123
      22A     -0.481695    23A     -0.470438    24A     -0.446816

  @DF-RHF Final Energy:  -321.73861352430629

   => Energetics <=

    Nuclear Repulsion Energy =            256.8371443676197714
    One-Electron Energy =                -947.5077512807904441
    Two-Electron Energy =                 368.9319933888646119
    DFT Exchange-Correlation Energy =       0.0000000000000000
    Empirical Dispersion Energy =           0.0000000000000000
    PCM Polarization Energy =               0.0000000000000000
    EFP Energy =                            0.0000000000000000
    Total Energy =                       -321.7386135243060608
    Molecular point group: c1
  Basis Set: 6-31G*
  Basis Set:

  -Total Gradient:
     Atom            X                  Y                   Z
    ------   -----------------  -----------------  -----------------
       1        0.000002380087     0.000002208976     0.000007002787
       2       -0.000003851835     0.000009495344    -0.000010901393
       3       -0.000056382802     0.001078691446     0.000181810265
       4       -0.000003835970     0.000004554403    -0.000002504339
       5       -0.000002496851    -0.000014145839     0.000012287011
       6       -0.000023686882     0.000010246372    -0.000020600018
       7        0.000254072824    -0.000893359882    -0.000629252079
       8        0.000015713701    -0.000749530236    -0.000006960019
       9       -0.000012717374     0.000010028322     0.000007697591
      10       -0.000003002884    -0.000008945661    -0.000006378961
      11        0.000007628542    -0.000008830919    -0.000003752159
      12       -0.000166397748     0.000570339176     0.000454841430
      13       -0.000007422809    -0.000010751502     0.000016709884

  **** Optimization is complete! (in 7 steps) ****
    Final optimized geometry and variables:
    Molecular point group: c1

    Geometry (in Angstrom), charge = 0, multiplicity = 1:

    H           -2.375144215299    -1.319446544664    -0.427553320177
    C           -1.382086371236    -1.296321818670     0.007872864036
    C           -0.682057078640    -0.032936505060    -0.462634567561
    H           -0.850567178972    -2.184630694834    -0.309361408858
    H           -1.473960377744    -1.319253817818     1.085006990736
    C           -1.346224016293     1.254165388635     0.021682541823
    N            0.743908675423    -0.000689109798     0.008268478520
    H           -0.590673915132    -0.021297570096    -1.538453339285
    H           -2.364141252653     1.288528817924    -0.348420762874
    H           -0.815929343037     2.124005336303    -0.342427374620
    H           -1.374886127607     1.284276697548     1.105201588501
    O            1.484986035466     0.711560894637    -0.598471511252
    O            1.042676320879    -0.645306128275     0.965040878729

  Mulliken Charges: (a.u.)
   Center  Symbol    Alpha    Beta     Spin     Total
       1     H     0.41202  0.41202  0.00000  0.17595
       2     C     3.24378  3.24378  0.00000 -0.48756
       3     C     3.02310  3.02310  0.00000 -0.04619
       4     H     0.40297  0.40297  0.00000  0.19407
       5     H     0.39972  0.39972  0.00000  0.20055
       6     C     3.25016  3.25016  0.00000 -0.50032
       7     N     3.21836  3.21836  0.00000  0.56329
       8     H     0.38687  0.38687  0.00000  0.22626
       9     H     0.40629  0.40629  0.00000  0.18742
      10     H     0.39441  0.39441  0.00000  0.21118
      11     H     0.40351  0.40351  0.00000  0.19299
      12     O     4.23065  4.23065  0.00000 -0.46130
      13     O     4.22816  4.22816  0.00000 -0.45633

   Total alpha = 24.00000, Total beta = 24.00000, Total charge = -0.00000
