  ==> Input File <==

--------------------------------------------------------------------------
set {
	reference rhf
	basis 6-31G*
}

set_num_threads( 4 )
memory 2 gb

molecule MOL {
0 1

H	 3.300087	 -0.428459	 -0.020682
C	 2.240138	 -0.247047	 -0.016235
C	 1.529500	 -0.337906	 1.174394
C	 1.592013	 0.075592	 -1.196836
H	 2.039720	 -0.588831	 2.086665
C	 0.168182	 -0.105551	 1.183661
H	 2.145030	 0.144953	 -2.115860
C	 0.226281	 0.308464	 -1.186216
H	 -0.399151	 -0.170731	 2.093076
C	 -0.488460	 0.219100	 0.000000
H	 -0.283174	 0.559657	 -2.100713
C	 -1.949954	 0.470334	 0.000000
O	 -2.781584	 -0.381627	 0.000000
H	 -2.238022	 1.526388	 0.000000

	symmetry c1
}
set optking {
	frozen_dihedral = ("
		8 10 12 14
	")
}

ee = optimize('scf')
oeprop('DIPOLE', 'QUADRUPOLE', 'MULLIKEN_CHARGES')
f=open( 'psi4out.xyz', 'w' )
f.write( "14  " )
f.write( str(ee) + "\n" )
f.write( MOL.save_string_xyz() )
f.close()
--------------------------------------------------------------------------

    Molecular point group: c1
  Charge       = 0
  Multiplicity = 1
  Basis Set: 6-31G*
  Basis Set:
  @DF-RHF Final Energy:  -343.41886804438616
    Total Energy =                       -343.4188680443863859
    Molecular point group: c1
  Basis Set: 6-31G*
  Basis Set:
  Basis Set: 6-31G*
  Basis Set:
  @DF-RHF Final Energy:  -343.41847909276527
    Total Energy =                       -343.4184790927650965
  Basis Set: 6-31G*
  Basis Set:
  Basis Set: 6-31G*
  Basis Set:
  @DF-RHF Final Energy:  -343.41913230104399
    Total Energy =                       -343.4191323010442716
  Basis Set: 6-31G*
  Basis Set:
  Basis Set: 6-31G*
  Basis Set:
  @DF-RHF Final Energy:  -343.41935435711173
    Total Energy =                       -343.4193543571115015
  Basis Set: 6-31G*
  Basis Set:
  Charge       = 0
  Multiplicity = 1
  Basis Set: 6-31G*
  Basis Set:

    Orbital Energies (a.u.)
    -----------------------

    Doubly Occupied:

       1A    -20.572660     2A    -11.336079     3A    -11.251266
       4A    -11.247547     5A    -11.246499     6A    -11.243984
       7A    -11.243230     8A    -11.242125     9A     -1.411598
      10A     -1.168718    11A     -1.044376    12A     -1.028661
      13A     -0.886659    14A     -0.840453    15A     -0.794649
      16A     -0.720397    17A     -0.676679    18A     -0.651287
      19A     -0.639449    20A     -0.616293    21A     -0.600278
      22A     -0.533348    23A     -0.528189    24A     -0.511380
      25A     -0.501533    26A     -0.421917    27A     -0.346453
      28A     -0.345686

  @DF-RHF Final Energy:  -343.41935583608415

   => Energetics <=

    Nuclear Repulsion Energy =            322.4097588275733415
    One-Electron Energy =               -1104.3554449437701805
    Two-Electron Energy =                 438.5263302801129726
    DFT Exchange-Correlation Energy =       0.0000000000000000
    Empirical Dispersion Energy =           0.0000000000000000
    PCM Polarization Energy =               0.0000000000000000
    EFP Energy =                            0.0000000000000000
    Total Energy =                       -343.4193558360838665
    Molecular point group: c1
  Basis Set: 6-31G*
  Basis Set:

  -Total Gradient:
     Atom            X                  Y                   Z
    ------   -----------------  -----------------  -----------------
       1       -0.000004024861    -0.000024338802     0.000017003397
       2        0.000020383188     0.000068451084    -0.000171083448
       3       -0.000137669251     0.000099565746     0.000086933557
       4        0.000155467741    -0.000109732846     0.000087370533
       5        0.000014956871    -0.000025081028    -0.000013730046
       6        0.000111546092    -0.000110309297     0.000039798084
       7       -0.000006149528     0.000005524660    -0.000004059564
       8       -0.000654996246    -0.002762891842    -0.000381420887
       9       -0.000004723538     0.000017247271    -0.000014292089
      10        0.000703872882     0.004195846406     0.001744767499
      11        0.000001510598    -0.000010106556     0.000001534373
      12       -0.000310252658    -0.001414982345    -0.004920393948
      13        0.000049302147     0.000019218625    -0.000017828962
      14        0.000060776571     0.000051588924     0.003545401502

  **** Optimization is complete! (in 5 steps) ****
    Final optimized geometry and variables:
    Molecular point group: c1

    Geometry (in Angstrom), charge = 0, multiplicity = 1:

    H            3.302922908336    -0.441529405433    -0.015688774976
    C            2.244875458769    -0.250494919028    -0.013734113719
    C            1.527126144606    -0.335368948348     1.168751470853
    C            1.596746057637     0.075375297406    -1.193952051986
    H            2.026332909741    -0.595261668183     2.084780999406
    C            0.162953410929    -0.097118432447     1.172034907663
    H            2.148632761351     0.132637742403    -2.114808871635
    C            0.234208005778     0.325748609185    -1.190794381672
    H           -0.396130851530    -0.180339189481     2.086933137603
    C           -0.485084999439     0.245518582309    -0.006749408369
    H           -0.265597848549     0.578570591088    -2.109732904881
    C           -1.968042334936     0.477914236502    -0.004511878565
    O           -2.770486466067    -0.395371041256     0.057203650949
    H           -2.291253854846     1.522996231565    -0.018306238785

  Mulliken Charges: (a.u.)
   Center  Symbol    Alpha    Beta     Spin     Total
       1     H     0.39591  0.39591  0.00000  0.20819
       2     C     3.09813  3.09813  0.00000 -0.19625
       3     C     3.09847  3.09847  0.00000 -0.19694
       4     C     3.09818  3.09818  0.00000 -0.19635
       5     H     0.39522  0.39522  0.00000  0.20956
       6     C     3.10154  3.10154  0.00000 -0.20309
       7     H     0.39541  0.39541  0.00000  0.20919
       8     C     3.10480  3.10480  0.00000 -0.20960
       9     H     0.39039  0.39039  0.00000  0.21923
      10     C     3.03045  3.03045  0.00000 -0.06089
      11     H     0.39331  0.39331  0.00000  0.21337
      12     C     2.85393  2.85393  0.00000  0.29214
      13     O     4.22111  4.22111  0.00000 -0.44222
      14     H     0.42316  0.42316  0.00000  0.15367

   Total alpha = 28.00000, Total beta = 28.00000, Total charge =  0.00000
