  ==> Input File <==

--------------------------------------------------------------------------
set {
	reference rhf
	basis 6-31G*
}

set_num_threads( 4 )
memory 2 gb

molecule MOL {
0 1

O	 1.164204	 4.022535	 -1.274998
C	 0.226442	 4.272108	 -1.968593
C	 -1.041090	 3.436726	 -1.947717
C	 0.241601	 5.448952	 -2.922514
C	 -0.998069	 2.265877	 -0.970222
H	 -1.873619	 4.100194	 -1.717297
H	 -1.225092	 3.084909	 -2.962001
C	 -2.291064	 1.448638	 -0.977018
H	 -0.805205	 2.643531	 0.028933
H	 -0.156114	 1.626945	 -1.217258
C	 -2.259874	 0.272531	 0.000494
H	 -3.131682	 2.096199	 -0.731916
H	 -2.479290	 1.074325	 -1.982268
C	 -3.549786	 -0.549746	 -0.000374
H	 -2.072480	 0.645612	 1.005836
H	 -1.420447	 -0.375951	 -0.244108
C	 -4.809590	 0.315458	 -0.000369
H	 -3.560515	 -1.202009	 -0.871156
H	 -3.561123	 -1.202955	 0.869711
H	 -4.844746	 0.956611	 -0.876632
H	 -5.706986	 -0.295590	 -0.001609
H	 -4.845960	 0.954827	 0.877144
H	 -0.566483	 6.136188	 -2.689434
H	 1.188034	 5.966290	 -2.848622
H	 0.092263	 5.110578	 -3.943707

	symmetry c1
}
set optking {
	frozen_dihedral = ("
		15 11 14 18
	")
}

ee = optimize('scf')
oeprop('DIPOLE', 'QUADRUPOLE', 'MULLIKEN_CHARGES')
f=open( 'psi4out.xyz', 'w' )
f.write( "25  " )
f.write( str(ee) + "\n" )
f.write( MOL.save_string_xyz() )
f.close()
--------------------------------------------------------------------------

    Molecular point group: c1
  Charge       = 0
  Multiplicity = 1
  Basis Set: 6-31G*
  Basis Set:
  @DF-RHF Final Energy:  -387.13155399962466
    Total Energy =                       -387.1315539996248845
    Molecular point group: c1
  Basis Set: 6-31G*
  Basis Set:
  Basis Set: 6-31G*
  Basis Set:
  @DF-RHF Final Energy:  -387.13254833342995
    Total Energy =                       -387.1325483334295541
  Basis Set: 6-31G*
  Basis Set:
  Basis Set: 6-31G*
  Basis Set:
  @DF-RHF Final Energy:  -387.13354361974297
    Total Energy =                       -387.1335436197423405
  Basis Set: 6-31G*
  Basis Set:
  Basis Set: 6-31G*
  Basis Set:
  @DF-RHF Final Energy:  -387.13364906017807
    Total Energy =                       -387.1336490601780724
  Basis Set: 6-31G*
  Basis Set:
  @DF-RHF Final Energy:  -387.13350146350484
    Total Energy =                       -387.1335014635042171
  Basis Set: 6-31G*
  Basis Set:
  @DF-RHF Final Energy:  -387.13351720881423
    Total Energy =                       -387.1335172088142826
  Basis Set: 6-31G*
  Basis Set:
  Basis Set: 6-31G*
  Basis Set:
  @DF-RHF Final Energy:  -387.13366410036974
    Total Energy =                       -387.1336641003696286
  Basis Set: 6-31G*
  Basis Set:
  Basis Set: 6-31G*
  Basis Set:
  @DF-RHF Final Energy:  -387.13366867382956
    Total Energy =                       -387.1336686738294475
  Basis Set: 6-31G*
  Basis Set:
  Charge       = 0
  Multiplicity = 1
  Basis Set: 6-31G*
  Basis Set:

    Orbital Energies (a.u.)
    -----------------------

    Doubly Occupied:

       1A    -20.550453     2A    -11.326295     3A    -11.231853
       4A    -11.228338     5A    -11.216977     6A    -11.216342
       7A    -11.215726     8A    -11.213752     9A    -11.209192
      10A     -1.395759    11A     -1.093417    12A     -1.055327
      13A     -1.013438    14A     -0.966989    15A     -0.897223
      16A     -0.825343    17A     -0.775807    18A     -0.729428
      19A     -0.658762    20A     -0.652384    21A     -0.626684
      22A     -0.622364    23A     -0.604332    24A     -0.592064
      25A     -0.564207    26A     -0.556653    27A     -0.546023
      28A     -0.521695    29A     -0.511875    30A     -0.494543
      31A     -0.489352    32A     -0.476768    33A     -0.457622
      34A     -0.456333    35A     -0.451447    36A     -0.399509

  @DF-RHF Final Energy:  -387.13366929051267

   => Energetics <=

    Nuclear Repulsion Energy =            442.9532456519182233
    One-Electron Energy =               -1402.4852799706768565
    Two-Electron Energy =                 572.3983650282461895
    DFT Exchange-Correlation Energy =       0.0000000000000000
    Empirical Dispersion Energy =           0.0000000000000000
    PCM Polarization Energy =               0.0000000000000000
    EFP Energy =                            0.0000000000000000
    Total Energy =                       -387.1336692905124437
    Molecular point group: c1
  Basis Set: 6-31G*
  Basis Set:

  -Total Gradient:
     Atom            X                  Y                   Z
    ------   -----------------  -----------------  -----------------
       1       -0.000012589594     0.000017722635     0.000016044046
       2        0.000032427973    -0.000050756484    -0.000061655914
       3       -0.000008113705     0.000010387103     0.000013000852
       4       -0.000007799722     0.000015417401     0.000020418915
       5       -0.000012451994     0.000007370330     0.000037266114
       6       -0.000001716373    -0.000001898756     0.000001491061
       7        0.000001955997     0.000005070748     0.000000695766
       8       -0.000003898317    -0.000010627833    -0.000060899944
       9        0.000009719664     0.000004434264     0.000001704292
      10       -0.000000858128    -0.000000084048     0.000002026693
      11       -0.002315076970     0.003178281611    -0.000463143027
      12        0.000007304336     0.000001109957    -0.000001419811
      13       -0.000005879098     0.000010209569    -0.000017982394
      14       -0.001855510698     0.002603633690    -0.002330427741
      15        0.002237031867    -0.003113464009     0.000778046774
      16       -0.000021109115    -0.000012421322     0.000017282077
      17       -0.000013062659     0.000033597826     0.000016741427
      18        0.001953621359    -0.002701501749     0.002043484731
      19        0.000030065127     0.000004645861    -0.000015951381
      20       -0.000009276758     0.000007507327    -0.000002246001
      21        0.000010456209    -0.000011783587     0.000001292841
      22       -0.000015341388     0.000001789652     0.000004140229
      23       -0.000000371062     0.000003537600    -0.000003562301
      24        0.000000044307     0.000002202118    -0.000000471529
      25        0.000000428741    -0.000004379899     0.000004124225

  **** Optimization is complete! (in 9 steps) ****
    Final optimized geometry and variables:
    Molecular point group: c1

    Geometry (in Angstrom), charge = 0, multiplicity = 1:

    O            2.700054333306     1.642464951723    -0.191493174864
    C            1.760711561764     1.930088836502    -0.867988510325
    C            0.463344160756     1.142490100919    -0.828950075532
    C            1.803505236002     3.110452299974    -1.816710400162
    C            0.479245909188    -0.033972266240     0.142596497752
    H           -0.339645361418     1.835570779549    -0.581524702155
    H            0.249158442270     0.802735908775    -1.841437966049
    C           -0.842331816520    -0.804824659228     0.151660406670
    H            0.699627932916     0.331744344934     1.140626372022
    H            1.294563427683    -0.700670921132    -0.119415315539
    C           -0.830220211251    -1.975496209557     1.136147540272
    H           -1.652587129712    -0.122524941639     0.396630486116
    H           -1.051088798500    -1.180011140799    -0.849834408696
    C           -2.067536928259    -2.883988414616     1.100141310363
    H           -0.678828921864    -1.610880552614     2.150545630623
    H            0.040637886638    -2.593919766183     0.926597724336
    C           -3.414062892512    -2.163971713468     1.171133245561
    H           -2.024895210596    -3.517474206918     0.216692691700
    H           -1.997637124422    -3.569686399225     1.941720784003
    H           -3.597226599572    -1.555534592026     0.291804677840
    H           -4.226927705331    -2.879493297376     1.247287097740
    H           -3.465131505250    -1.513872705557     2.040698277482
    H            1.025900535577     3.826212248775    -1.566429394342
    H            2.769774105347     3.591680904141    -1.756991744240
    H            1.623967528930     2.783222628059    -2.836675733800

  Mulliken Charges: (a.u.)
   Center  Symbol    Alpha    Beta     Spin     Total
       1     O     4.26115  4.26115  0.00000 -0.52231
       2     C     2.73572  2.73572  0.00000  0.52856
       3     C     3.21076  3.21076  0.00000 -0.42152
       4     C     3.28665  3.28665  0.00000 -0.57330
       5     C     3.14795  3.14795  0.00000 -0.29590
       6     H     0.41005  0.41005  0.00000  0.17991
       7     H     0.41007  0.41007  0.00000  0.17986
       8     C     3.15616  3.15616  0.00000 -0.31231
       9     H     0.41213  0.41213  0.00000  0.17574
      10     H     0.41211  0.41211  0.00000  0.17578
      11     C     3.15315  3.15315  0.00000 -0.30630
      12     H     0.42208  0.42208  0.00000  0.15584
      13     H     0.42523  0.42523  0.00000  0.14955
      14     C     3.15217  3.15217  0.00000 -0.30433
      15     H     0.42226  0.42226  0.00000  0.15548
      16     H     0.42106  0.42106  0.00000  0.15788
      17     C     3.24199  3.24199  0.00000 -0.48398
      18     H     0.42303  0.42303  0.00000  0.15395
      19     H     0.42092  0.42092  0.00000  0.15815
      20     H     0.42044  0.42044  0.00000  0.15912
      21     H     0.41898  0.41898  0.00000  0.16203
      22     H     0.42204  0.42204  0.00000  0.15591
      23     H     0.40873  0.40873  0.00000  0.18254
      24     H     0.39646  0.39646  0.00000  0.20709
      25     H     0.40871  0.40871  0.00000  0.18257

   Total alpha = 36.00000, Total beta = 36.00000, Total charge = -0.00000
