  ==> Input File <==

--------------------------------------------------------------------------
set {
	reference rhf
	basis 6-31G*
}

set_num_threads( 4 )
memory 2 gb

molecule MOL {
0 1

H	 2.465338	 -2.224223	 0.000000
O	 2.784187	 -1.332015	 0.000000
C	 1.765313	 -0.449364	 0.000000
C	 2.043195	 0.846774	 -0.422789
C	 0.486891	 -0.788924	 0.398083
H	 3.044691	 1.085883	 -0.727242
C	 1.042294	 1.795855	 -0.445348
H	 0.244692	 -1.779766	 0.728382
C	 -0.494256	 0.188795	 0.362939
H	 1.265630	 2.794103	 -0.773188
C	 -0.250568	 1.479342	 -0.050163
N	 -1.844961	 -0.175699	 0.785107
H	 -1.037481	 2.204620	 -0.062151
O	 -2.030209	 -1.301122	 1.138857
O	 -2.683536	 0.671620	 0.751859

	symmetry c1
}
set optking {
	frozen_dihedral = ("
		4 3 2 1
	")
}

ee = optimize('scf')
oeprop('DIPOLE', 'QUADRUPOLE', 'MULLIKEN_CHARGES')
f=open( 'psi4out.xyz', 'w' )
f.write( "15  " )
f.write( str(ee) + "\n" )
f.write( MOL.save_string_xyz() )
f.close()
--------------------------------------------------------------------------

    Molecular point group: c1
  Charge       = 0
  Multiplicity = 1
  Basis Set: 6-31G*
  Basis Set:
  @DF-RHF Final Energy:  -509.02716252848643
    Total Energy =                       -509.0271625284865422
    Molecular point group: c1
  Basis Set: 6-31G*
  Basis Set:
  Basis Set: 6-31G*
  Basis Set:
  @DF-RHF Final Energy:  -509.02713122019344
    Total Energy =                       -509.0271312201937235
  Basis Set: 6-31G*
  Basis Set:
  Basis Set: 6-31G*
  Basis Set:
  @DF-RHF Final Energy:  -509.02497874579279
    Total Energy =                       -509.0249787457926232
  Basis Set: 6-31G*
  Basis Set:
  Basis Set: 6-31G*
  Basis Set:
  @DF-RHF Final Energy:  -509.02715157448614
    Total Energy =                       -509.0271515744860835
  Basis Set: 6-31G*
  Basis Set:
  Basis Set: 6-31G*
  Basis Set:
  @DF-RHF Final Energy:  -509.02718483911843
    Total Energy =                       -509.0271848391182630
  Basis Set: 6-31G*
  Basis Set:
  Charge       = 0
  Multiplicity = 1
  Basis Set: 6-31G*
  Basis Set:

    Orbital Energies (a.u.)
    -----------------------

    Doubly Occupied:

       1A    -20.613912     2A    -20.605091     3A    -20.604580
       4A    -15.859527     5A    -11.329458     6A    -11.311086
       7A    -11.267532     8A    -11.266812     9A    -11.264340
      10A    -11.261160    11A     -1.638313    12A     -1.434270
      13A     -1.421544    14A     -1.200633    15A     -1.095025
      16A     -1.046505    17A     -0.966006    18A     -0.877614
      19A     -0.828774    20A     -0.791201    21A     -0.750786
      22A     -0.737223    23A     -0.723998    24A     -0.707986
      25A     -0.673504    26A     -0.635876    27A     -0.621114
      28A     -0.586428    29A     -0.558044    30A     -0.544297
      31A     -0.515117    32A     -0.492071    33A     -0.489906
      34A     -0.454956    35A     -0.377401    36A     -0.344622

  @DF-RHF Final Energy:  -509.02718683342425

   => Energetics <=

    Nuclear Repulsion Energy =            503.4002455940502614
    One-Electron Energy =               -1693.0614462745131732
    Two-Electron Energy =                 680.6340138470388865
    DFT Exchange-Correlation Energy =       0.0000000000000000
    Empirical Dispersion Energy =           0.0000000000000000
    PCM Polarization Energy =               0.0000000000000000
    EFP Energy =                            0.0000000000000000
    Total Energy =                       -509.0271868334241390
    Molecular point group: c1
  Basis Set: 6-31G*
  Basis Set:

  -Total Gradient:
     Atom            X                  Y                   Z
    ------   -----------------  -----------------  -----------------
       1       -0.000020859320     0.000026640865    -0.001882205860
       2       -0.000130334906    -0.000097553470     0.001769422913
       3        0.000403094839     0.000383738844     0.001374330576
       4       -0.000334099692    -0.000278452381    -0.001309761820
       5        0.000093829569     0.000002107200     0.000020792612
       6        0.000013018224    -0.000002633858     0.000004685121
       7        0.000135593305    -0.000017095707     0.000047657606
       8       -0.000005227732     0.000011552807    -0.000017943471
       9       -0.000004139987     0.000080259670    -0.000029552441
      10        0.000003280852    -0.000008049647    -0.000010695817
      11       -0.000070394500    -0.000074024811    -0.000014756583
      12        0.000101780052     0.000036500336    -0.000025735353
      13        0.000015874916    -0.000005509853     0.000005347233
      14       -0.000121099565     0.000051934755     0.000018526534
      15       -0.000080316072    -0.000109414746     0.000049888751

  **** Optimization is complete! (in 6 steps) ****
    Final optimized geometry and variables:
    Molecular point group: c1

    Geometry (in Angstrom), charge = 0, multiplicity = 1:

    H            2.432239156704    -2.261412487661    -0.266680297383
    O            2.753133002755    -1.370010765159    -0.269778980659
    C            1.733597881229    -0.484770650679    -0.277752876971
    C            2.009929555814     0.809416016695    -0.704760812840
    C            0.455815383322    -0.824718347533     0.122606184095
    H            3.009724964776     1.046738744677    -1.016377310646
    C            1.010442168309     1.761142487162    -0.719369091688
    H            0.217638992293    -1.814108942367     0.459696166489
    C           -0.526080620957     0.151555147441     0.085968448517
    H            1.232837322379     2.759141350783    -1.048563111846
    C           -0.281571322926     1.443645840100    -0.323982806494
    N           -1.877234961878    -0.213485962201     0.505816709948
    H           -1.068660331733     2.168730757562    -0.334801365182
    O           -2.067578666553    -1.344166623224     0.839231002558
    O           -2.711691304313     0.638534170594     0.490165779450

  Mulliken Charges: (a.u.)
   Center  Symbol    Alpha    Beta     Spin     Total
       1     H     0.26755  0.26755  0.00000  0.46490
       2     O     4.37697  4.37697  0.00000 -0.75395
       3     C     2.79428  2.79428  0.00000  0.41144
       4     C     3.10776  3.10776  0.00000 -0.21552
       5     C     3.13426  3.13426  0.00000 -0.26852
       6     H     0.38091  0.38091  0.00000  0.23819
       7     C     3.10115  3.10115  0.00000 -0.20230
       8     H     0.36704  0.36704  0.00000  0.26592
       9     C     2.91413  2.91413  0.00000  0.17175
      10     H     0.38655  0.38655  0.00000  0.22690
      11     C     3.09693  3.09693  0.00000 -0.19385
      12     N     3.24032  3.24032  0.00000  0.51935
      13     H     0.36507  0.36507  0.00000  0.26985
      14     O     4.23529  4.23529  0.00000 -0.47059
      15     O     4.23179  4.23179  0.00000 -0.46359

   Total alpha = 36.00000, Total beta = 36.00000, Total charge = -0.00000
