  ==> Input File <==

--------------------------------------------------------------------------
set {
	reference rhf
	basis cc-pvtz
}

set_num_threads( 4 )
memory 2 gb

molecule MOL {
0 1

H	 2.095469	 -0.720919	 -0.466551
O	 1.268626	 -0.643524	 -0.028390
C	 0.700177	 0.619554	 -0.266242
C	 -0.713111	 0.588314	 0.266177
H	 0.682318	 0.837438	 -1.329789
H	 1.263170	 1.400056	 0.238965
O	 -1.421673	 -0.521378	 -0.196983
H	 -1.244794	 1.469161	 -0.069059
H	 -0.685100	 0.604721	 1.352683
H	 -0.933408	 -1.297830	 0.014544

	symmetry c1
}
set optking {
	frozen_dihedral = ("
		5 3 4 7
	")
}

ee = optimize('scf')
oeprop('DIPOLE', 'QUADRUPOLE', 'MULLIKEN_CHARGES')
f=open( 'psi4out.xyz', 'w' )
f.write( "10  " )
f.write( str(ee) + "\n" )
f.write( MOL.save_string_xyz() )
f.close()
--------------------------------------------------------------------------

    Molecular point group: c1
  Charge       = 0
  Multiplicity = 1
  Basis Set: CC-PVTZ
  Basis Set:
  @DF-RHF Final Energy:  -229.02782753470990
    Total Energy =                       -229.0278275347098997
    Molecular point group: c1
  Basis Set: CC-PVTZ
  Basis Set:
  Basis Set: CC-PVTZ
  Basis Set:
  @DF-RHF Final Energy:  -229.02805312886349
    Total Energy =                       -229.0280531288634336
  Basis Set: CC-PVTZ
  Basis Set:
  Basis Set: CC-PVTZ
  Basis Set:
  @DF-RHF Final Energy:  -229.02813009720236
    Total Energy =                       -229.0281300972023928
  Basis Set: CC-PVTZ
  Basis Set:
  Charge       = 0
  Multiplicity = 1
  Basis Set: CC-PVTZ
  Basis Set:

    Orbital Energies (a.u.)
    -----------------------

    Doubly Occupied:

       1A    -20.563518     2A    -20.540323     3A    -11.275445
       4A    -11.266893     5A     -1.388174     6A     -1.354682
       7A     -1.003660     8A     -0.845446     9A     -0.731220
      10A     -0.682505    11A     -0.653238    12A     -0.604488
      13A     -0.579537    14A     -0.537311    15A     -0.492288
      16A     -0.456243    17A     -0.434070

  @DF-RHF Final Energy:  -229.02813115440870

   => Energetics <=

    Nuclear Repulsion Energy =            134.8894634374111092
    One-Electron Energy =                -581.0171108347691415
    Two-Electron Energy =                 217.0995162429493632
    DFT Exchange-Correlation Energy =       0.0000000000000000
    Empirical Dispersion Energy =           0.0000000000000000
    PCM Polarization Energy =               0.0000000000000000
    EFP Energy =                            0.0000000000000000
    Total Energy =                       -229.0281311544086691
    Molecular point group: c1
  Basis Set: CC-PVTZ
  Basis Set:

  -Total Gradient:
     Atom            X                  Y                   Z
    ------   -----------------  -----------------  -----------------
       1        0.000044197131    -0.000036102441    -0.000010178312
       2        0.000082044202    -0.000033939337    -0.000031621364
       3       -0.000120443599    -0.005155690760    -0.000056590450
       4       -0.001193943914     0.003035853602    -0.002996769590
       5        0.000289703004     0.003697417485     0.000744969819
       6        0.000015778887    -0.000003627573    -0.000004274104
       7        0.000894825128    -0.001530672602     0.002353436589
       8       -0.000049618452    -0.000044434283    -0.000013649023
       9        0.000004429678     0.000000029224    -0.000002943677
      10        0.000033027939     0.000071166686     0.000017620112

  **** Optimization is complete! (in 4 steps) ****
    Final optimized geometry and variables:
    Molecular point group: c1

    Geometry (in Angstrom), charge = 0, multiplicity = 1:

    H            2.136408961082    -0.688500054585    -0.382666161214
    O            1.303612692747    -0.612247279497     0.044169587093
    C            0.721777296514     0.635470137238    -0.225186875596
    C           -0.688837254819     0.618772084259     0.326149275268
    H            0.705060467198     0.847791541517    -1.290184780438
    H            1.279291075630     1.434189979818     0.258465209908
    O           -1.414968905420    -0.484711230936    -0.120366625730
    H           -1.213433761621     1.509505122167     0.006979328904
    H           -0.644096812521     0.627652698916     1.412766062671
    H           -0.888137458732    -1.255158943309     0.001800641776

  Mulliken Charges: (a.u.)
   Center  Symbol    Alpha    Beta     Spin     Total
       1     H     0.39041  0.39041  0.00000  0.21919
       2     O     4.20632  4.20632  0.00000 -0.41264
       3     C     2.97063  2.97063  0.00000  0.05875
       4     C     2.96221  2.96221  0.00000  0.07559
       5     H     0.47142  0.47142  0.00000  0.05717
       6     H     0.47299  0.47299  0.00000  0.05402
       7     O     4.20990  4.20990  0.00000 -0.41981
       8     H     0.45927  0.45927  0.00000  0.08145
       9     H     0.47275  0.47275  0.00000  0.05449
      10     H     0.38411  0.38411  0.00000  0.23179

   Total alpha = 17.00000, Total beta = 17.00000, Total charge = -0.00000
