  ==> Input File <==

--------------------------------------------------------------------------
set {
	reference rhf
	basis 6-31G*
}

set_num_threads( 4 )
memory 2 gb

molecule MOL {
0 1

O	 0.749854	 1.307668	 -0.000040
C	 0.576249	 0.131685	 -0.000108
C	 -0.766779	 -0.556801	 -0.000461
O	 1.568443	 -0.749345	 -0.000005
C	 -1.945214	 0.412366	 0.000161
H	 -0.796911	 -1.211249	 -0.867467
H	 -0.796854	 -1.212390	 0.865687
C	 -3.281698	 -0.309541	 -0.164851
H	 -1.814263	 1.135709	 -0.797479
H	 -1.942338	 0.978776	 0.925227
H	 -3.321375	 -0.859837	 -1.100827
H	 -4.105740	 0.396400	 -0.162387
H	 -3.451387	 -1.017654	 0.641533
C	 2.886820	 -0.232538	 0.000322
H	 3.059106	 0.369571	 -0.880203
H	 3.540187	 -1.091012	 0.000050
H	 3.059019	 0.368956	 0.881266

	symmetry c1
}
set optking {
	frozen_dihedral = ("
		9 5 3 6
	")
}

ee = optimize('scf')
oeprop('DIPOLE', 'QUADRUPOLE', 'MULLIKEN_CHARGES')
f=open( 'psi4out.xyz', 'w' )
f.write( "17  " )
f.write( str(ee) + "\n" )
f.write( MOL.save_string_xyz() )
f.close()
--------------------------------------------------------------------------

    Molecular point group: c1
  Charge       = 0
  Multiplicity = 1
  Basis Set: 6-31G*
  Basis Set:
  @DF-RHF Final Energy:  -344.90670255186313
    Total Energy =                       -344.9067025518628498
    Molecular point group: c1
  Basis Set: 6-31G*
  Basis Set:
  Basis Set: 6-31G*
  Basis Set:
  @DF-RHF Final Energy:  -344.90672015460331
    Total Energy =                       -344.9067201546034198
  Basis Set: 6-31G*
  Basis Set:
  Basis Set: 6-31G*
  Basis Set:
  @DF-RHF Final Energy:  -344.90672492759666
    Total Energy =                       -344.9067249275967129
  Basis Set: 6-31G*
  Basis Set:
  Basis Set: 6-31G*
  Basis Set:
  @DF-RHF Final Energy:  -344.90671010411154
    Total Energy =                       -344.9067101041115961
  Basis Set: 6-31G*
  Basis Set:
  Basis Set: 6-31G*
  Basis Set:
  @DF-RHF Final Energy:  -344.90672659549301
    Total Energy =                       -344.9067265954930690
  Basis Set: 6-31G*
  Basis Set:
  Charge       = 0
  Multiplicity = 1
  Basis Set: 6-31G*
  Basis Set:

    Orbital Energies (a.u.)
    -----------------------

    Doubly Occupied:

       1A    -20.604105     2A    -20.545973     3A    -11.372851
       4A    -11.281182     5A    -11.236026     6A    -11.221900
       7A    -11.214684     8A     -1.469848     9A     -1.363317
      10A     -1.080543    11A     -1.001580    12A     -0.939874
      13A     -0.827441    14A     -0.767487    15A     -0.700796
      16A     -0.683477    17A     -0.672416    18A     -0.636485
      19A     -0.595445    20A     -0.574803    21A     -0.568889
      22A     -0.527566    23A     -0.521858    24A     -0.499078
      25A     -0.487156    26A     -0.478125    27A     -0.456422
      28A     -0.438535

  @DF-RHF Final Energy:  -344.90672664799769

   => Energetics <=

    Nuclear Repulsion Energy =            312.4569083046787341
    One-Electron Energy =               -1089.1915440512352689
    Two-Electron Energy =                 431.8279090985589050
    DFT Exchange-Correlation Energy =       0.0000000000000000
    Empirical Dispersion Energy =           0.0000000000000000
    PCM Polarization Energy =               0.0000000000000000
    EFP Energy =                            0.0000000000000000
    Total Energy =                       -344.9067266479975729
    Molecular point group: c1
  Basis Set: 6-31G*
  Basis Set:

  -Total Gradient:
     Atom            X                  Y                   Z
    ------   -----------------  -----------------  -----------------
       1        0.000000228542    -0.000012577285    -0.000000210084
       2       -0.000004585527     0.000014342977    -0.000009046416
       3        0.000956677461     0.001170327669    -0.000603120599
       4        0.000002836550    -0.000000673782     0.000004954448
       5       -0.000897851868    -0.001096546409    -0.000761212767
       6       -0.000649216688    -0.000793359512     0.000624612846
       7       -0.000000776734    -0.000002440550    -0.000001708975
       8       -0.000003242491    -0.000002016819    -0.000002434058
       9        0.000590884041     0.000718026445     0.000745245115
      10       -0.000000040222     0.000002005410     0.000003751590
      11        0.000000040036     0.000000589554     0.000000129386
      12        0.000001389237     0.000000977595     0.000000316684
      13        0.000003376122     0.000001672872    -0.000000456290
      14       -0.000001030132    -0.000001142519    -0.000000899582
      15        0.000000375547     0.000000235010    -0.000000338382
      16        0.000000741687     0.000000425066     0.000000037141
      17        0.000000194437     0.000000154278     0.000000379942

  **** Optimization is complete! (in 6 steps) ****
    Final optimized geometry and variables:
    Molecular point group: c1

    Geometry (in Angstrom), charge = 0, multiplicity = 1:

    O            0.750533718794     1.307095464095     0.025201745958
    C            0.576203074868     0.131234857551     0.020536188956
    C           -0.766910754974    -0.556175127361     0.010599828609
    O            1.567779952719    -0.750411525576     0.024904427551
    C           -1.947427789000     0.410948405917     0.014312657513
    H           -0.797466189647    -1.212396910696    -0.855116270249
    H           -0.800314436969    -1.215374004704     0.874045590617
    C           -3.285216010120    -0.312181858762    -0.129041072318
    H           -1.822103557200     1.134124326146    -0.783879074963
    H           -1.934779353320     0.982792053792     0.936671317559
    H           -3.340092067808    -0.859743660288    -1.065797086692
    H           -4.110100272155     0.392459650865    -0.110001902091
    H           -3.439792927130    -1.022946128129     0.678071900283
    C            2.886475012255    -0.234434748842     0.034797674858
    H            3.064745563784     0.369697408714    -0.843117407595
    H            3.539346028651    -1.093317650919     0.036604144315
    H            3.053390370037     0.364795864061     0.918287854121

  Mulliken Charges: (a.u.)
   Center  Symbol    Alpha    Beta     Spin     Total
       1     O     4.28581  4.28581  0.00000 -0.57162
       2     C     2.60599  2.60599  0.00000  0.78802
       3     C     3.20642  3.20642  0.00000 -0.41284
       4     O     4.30691  4.30691  0.00000 -0.61382
       5     C     3.15223  3.15223  0.00000 -0.30446
       6     H     0.40102  0.40102  0.00000  0.19797
       7     H     0.40080  0.40080  0.00000  0.19840
       8     C     3.24278  3.24278  0.00000 -0.48556
       9     H     0.40895  0.40895  0.00000  0.18210
      10     H     0.41262  0.41262  0.00000  0.17475
      11     H     0.42112  0.42112  0.00000  0.15776
      12     H     0.41508  0.41508  0.00000  0.16983
      13     H     0.42143  0.42143  0.00000  0.15714
      14     C     3.09249  3.09249  0.00000 -0.18498
      15     H     0.40900  0.40900  0.00000  0.18200
      16     H     0.40835  0.40835  0.00000  0.18329
      17     H     0.40899  0.40899  0.00000  0.18202

   Total alpha = 28.00000, Total beta = 28.00000, Total charge =  0.00000
