  ==> Input File <==

--------------------------------------------------------------------------
set {
	reference rhf
	basis cc-pvtz
}

set_num_threads( 4 )
memory 2 gb

molecule MOL {
0 1

O	 0.599156	 1.312370	 0.433129
C	 0.471959	 0.152940	 0.229679
C	 1.595684	 -0.852054	 0.196701
O	 -0.695554	 -0.422406	 0.000602
C	 2.962617	 -0.239305	 0.455552
H	 1.559355	 -1.342454	 -0.769808
H	 1.361970	 -1.618907	 0.926941
H	 3.198588	 0.513325	 -0.284775
H	 3.726758	 -1.006206	 0.419497
H	 2.999425	 0.234376	 1.427405
C	 -1.852370	 0.402254	 0.000718
C	 -3.063338	 -0.501097	 -0.000437
H	 -1.831732	 1.039442	 -0.872158
H	 -1.832493	 1.038301	 0.874430
H	 -3.071944	 -1.133732	 -0.879113
H	 -3.966302	 0.097976	 -0.000483
H	 -3.072764	 -1.134834	 0.877435

	symmetry c1
}
set optking {
	frozen_dihedral = ("
		2 4 11 13
	")
}

ee = optimize('scf')
oeprop('DIPOLE', 'QUADRUPOLE', 'MULLIKEN_CHARGES')
f=open( 'psi4out.xyz', 'w' )
f.write( "17  " )
f.write( str(ee) + "\n" )
f.write( MOL.save_string_xyz() )
f.close()
--------------------------------------------------------------------------

    Molecular point group: c1
  Charge       = 0
  Multiplicity = 1
  Basis Set: CC-PVTZ
  Basis Set:
  @DF-RHF Final Energy:  -345.04041122792796
    Total Energy =                       -345.0404112279284163
    Molecular point group: c1
  Basis Set: CC-PVTZ
  Basis Set:
  Basis Set: CC-PVTZ
  Basis Set:
  @DF-RHF Final Energy:  -345.04042252326457
    Total Energy =                       -345.0404225232650219
  Basis Set: CC-PVTZ
  Basis Set:
  Basis Set: CC-PVTZ
  Basis Set:
  @DF-RHF Final Energy:  -345.04029365739581
    Total Energy =                       -345.0402936573959209
  Basis Set: CC-PVTZ
  Basis Set:
  Basis Set: CC-PVTZ
  Basis Set:
  @DF-RHF Final Energy:  -345.04044022507634
    Total Energy =                       -345.0404402250761677
  Basis Set: CC-PVTZ
  Basis Set:
  Charge       = 0
  Multiplicity = 1
  Basis Set: CC-PVTZ
  Basis Set:

    Orbital Energies (a.u.)
    -----------------------

    Doubly Occupied:

       1A    -20.593389     2A    -20.532829     3A    -11.363599
       4A    -11.282524     5A    -11.235825     6A    -11.220276
       7A    -11.213777     8A     -1.470256     9A     -1.364951
      10A     -1.070871    11A     -1.032510    12A     -0.911923
      13A     -0.847697    14A     -0.774598    15A     -0.698754
      16A     -0.691931    17A     -0.667645    18A     -0.630431
      19A     -0.584816    20A     -0.573662    21A     -0.558424
      22A     -0.525091    23A     -0.520103    24A     -0.515349
      25A     -0.504953    26A     -0.494005    27A     -0.455944
      28A     -0.439187

  @DF-RHF Final Energy:  -345.04044246582487

   => Energetics <=

    Nuclear Repulsion Energy =            315.2093117598825529
    One-Electron Energy =               -1094.9488679859052809
    Two-Electron Energy =                 434.6991137601972923
    DFT Exchange-Correlation Energy =       0.0000000000000000
    Empirical Dispersion Energy =           0.0000000000000000
    PCM Polarization Energy =               0.0000000000000000
    EFP Energy =                            0.0000000000000000
    Total Energy =                       -345.0404424658254356
    Molecular point group: c1
  Basis Set: CC-PVTZ
  Basis Set:

  -Total Gradient:
     Atom            X                  Y                   Z
    ------   -----------------  -----------------  -----------------
       1       -0.000002074907    -0.000003777218    -0.000008540596
       2       -0.000098240261    -0.000145554190     0.000886937033
       3       -0.000009189018    -0.000002728911     0.000014680888
       4        0.000018277544     0.000036833395    -0.001386570043
       5       -0.000000827086     0.000004822628    -0.000006779936
       6        0.000000456572     0.000002405021    -0.000006849884
       7       -0.000000084180    -0.000001511314    -0.000007012343
       8       -0.000000636690    -0.000000981942     0.000001936655
       9       -0.000001768732    -0.000000864975     0.000000690726
      10        0.000000891364     0.000000629346     0.000002119404
      11        0.000580664424     0.000813523920     0.001047156616
      12        0.000015476267     0.000008178368    -0.000005544219
      13       -0.000502854156    -0.000701670077    -0.000540030699
      14        0.000003186175    -0.000004916791     0.000000695380
      15       -0.000004254606     0.000000660582     0.000003374283
      16       -0.000000792464    -0.000001943610    -0.000000040944
      17        0.000001769757    -0.000003104233     0.000003777681

  **** Optimization is complete! (in 5 steps) ****
    Final optimized geometry and variables:
    Molecular point group: c1

    Geometry (in Angstrom), charge = 0, multiplicity = 1:

    O            0.616265645770     1.331604489426     0.232049657672
    C            0.483932347170     0.171087881127     0.038619967769
    C            1.603806019006    -0.838487900551     0.013412495580
    O           -0.685281734933    -0.402521162339    -0.186963414941
    C            2.973344002831    -0.228838126444     0.265747877744
    H            1.564662735231    -1.336617136050    -0.949035236313
    H            1.367905401288    -1.598475325467     0.750059875371
    H            3.211407033955     0.516668227841    -0.481069285341
    H            3.734484127820    -0.998956341021     0.235348573544
    H            3.013005669122     0.252783049386     1.233575609638
    C           -1.845291224602     0.417721120257    -0.174100893381
    C           -3.052883982642    -0.490752051048    -0.192049038332
    H           -1.828567694955     1.059865618460    -1.044573124017
    H           -1.830178672627     1.043698284268     0.705299968134
    H           -3.051393280237    -1.118022977147    -1.074569906527
    H           -3.958296469943     0.104664252173    -0.196531598639
    H           -3.067401097366    -1.129913428285     0.681872162741

  Mulliken Charges: (a.u.)
   Center  Symbol    Alpha    Beta     Spin     Total
       1     O     4.19706  4.19706  0.00000 -0.39412
       2     C     2.80848  2.80848  0.00000  0.38303
       3     C     3.09373  3.09373  0.00000 -0.18746
       4     O     4.15157  4.15157  0.00000 -0.30315
       5     C     3.13973  3.13973  0.00000 -0.27947
       6     H     0.44143  0.44143  0.00000  0.11714
       7     H     0.44187  0.44187  0.00000  0.11626
       8     H     0.44839  0.44839  0.00000  0.10321
       9     H     0.45058  0.45058  0.00000  0.09884
      10     H     0.44850  0.44850  0.00000  0.10300
      11     C     2.98102  2.98102  0.00000  0.03796
      12     C     3.13292  3.13292  0.00000 -0.26584
      13     H     0.45569  0.45569  0.00000  0.08861
      14     H     0.45148  0.45148  0.00000  0.09703
      15     H     0.45137  0.45137  0.00000  0.09727
      16     H     0.45454  0.45454  0.00000  0.09093
      17     H     0.45162  0.45162  0.00000  0.09675

   Total alpha = 28.00000, Total beta = 28.00000, Total charge = -0.00000
