  ==> Input File <==

--------------------------------------------------------------------------
set {
	reference rhf
	basis cc-pvtz
}

set_num_threads( 4 )
memory 2 gb

molecule MOL {
0 1

O	 0.749630	 1.305591	 -0.000460
C	 0.576499	 0.134701	 -0.003900
C	 -0.765656	 -0.550508	 -0.002152
O	 1.564816	 -0.744612	 -0.000631
C	 -1.945526	 0.411052	 0.000603
H	 -0.794329	 -1.203792	 -0.868145
H	 -0.791555	 -1.205429	 0.862701
C	 -3.004813	 0.022906	 -1.025154
H	 -1.589091	 1.414539	 -0.197791
H	 -2.382701	 0.437275	 0.991345
H	 -2.598061	 0.020454	 -2.031065
H	 -3.834074	 0.719646	 -1.006650
H	 -3.401373	 -0.967604	 -0.827773
C	 2.884339	 -0.237801	 0.002883
H	 3.064150	 0.362814	 -0.876312
H	 3.533055	 -1.098529	 0.004958
H	 3.059365	 0.363432	 0.882614

	symmetry c1
}
set optking {
	frozen_dihedral = ("
		9 5 3 6
	")
}

ee = optimize('scf')
oeprop('DIPOLE', 'QUADRUPOLE', 'MULLIKEN_CHARGES')
f=open( 'psi4out.xyz', 'w' )
f.write( "17  " )
f.write( str(ee) + "\n" )
f.write( MOL.save_string_xyz() )
f.close()
--------------------------------------------------------------------------

    Molecular point group: c1
  Charge       = 0
  Multiplicity = 1
  Basis Set: CC-PVTZ
  Basis Set:
  @DF-RHF Final Energy:  -345.03078432808752
    Total Energy =                       -345.0307843280871793
    Molecular point group: c1
  Basis Set: CC-PVTZ
  Basis Set:
  Basis Set: CC-PVTZ
  Basis Set:
  @DF-RHF Final Energy:  -345.03084680325861
    Total Energy =                       -345.0308468032584415
  Basis Set: CC-PVTZ
  Basis Set:
  Basis Set: CC-PVTZ
  Basis Set:
  @DF-RHF Final Energy:  -345.03105854307671
    Total Energy =                       -345.0310585430767105
  Basis Set: CC-PVTZ
  Basis Set:
  Basis Set: CC-PVTZ
  Basis Set:
  @DF-RHF Final Energy:  -345.03117753882344
    Total Energy =                       -345.0311775388232718
  Basis Set: CC-PVTZ
  Basis Set:
  Charge       = 0
  Multiplicity = 1
  Basis Set: CC-PVTZ
  Basis Set:

    Orbital Energies (a.u.)
    -----------------------

    Doubly Occupied:

       1A    -20.596899     2A    -20.535284     3A    -11.365967
       4A    -11.278968     5A    -11.234194     6A    -11.218513
       7A    -11.212193     8A     -1.473240     9A     -1.366746
      10A     -1.078872    11A     -1.002789    12A     -0.939956
      13A     -0.829048    14A     -0.769240    15A     -0.704563
      16A     -0.685407    17A     -0.676868    18A     -0.630563
      19A     -0.601406    20A     -0.573099    21A     -0.570953
      22A     -0.532267    23A     -0.525579    24A     -0.493232
      25A     -0.487077    26A     -0.473900    27A     -0.461588
      28A     -0.443626

  @DF-RHF Final Energy:  -345.03117819045229

   => Energetics <=

    Nuclear Repulsion Energy =            313.2563614981439173
    One-Electron Energy =               -1091.0510048187652501
    Two-Electron Energy =                 432.7634651301691520
    DFT Exchange-Correlation Energy =       0.0000000000000000
    Empirical Dispersion Energy =           0.0000000000000000
    PCM Polarization Energy =               0.0000000000000000
    EFP Energy =                            0.0000000000000000
    Total Energy =                       -345.0311781904522377
    Molecular point group: c1
  Basis Set: CC-PVTZ
  Basis Set:

  -Total Gradient:
     Atom            X                  Y                   Z
    ------   -----------------  -----------------  -----------------
       1        0.000029204205    -0.000045674231     0.000012388108
       2       -0.000002250798    -0.000027773555    -0.000013773867
       3        0.001731208579     0.002198397698    -0.001150466053
       4       -0.000031820267     0.000072616392    -0.000015835297
       5       -0.000729544210    -0.000925996225    -0.002609823547
       6       -0.001326049499    -0.001683768678     0.001326946254
       7       -0.000006833212     0.000019146137     0.000016152586
       8       -0.000014046330     0.000002757990    -0.000017736908
       9        0.000305228688     0.000381699604     0.002439791147
      10       -0.000007709144    -0.000003311475    -0.000020079332
      11        0.000018132759    -0.000013344768     0.000012836597
      12       -0.000002487302     0.000012366246    -0.000009584940
      13        0.000000465443     0.000012646687     0.000015567879
      14        0.000031451052    -0.000007947243     0.000020000386
      15       -0.000007856806    -0.000001227874    -0.000003023317
      16        0.000009408650     0.000007431362    -0.000002358225
      17        0.000003498194     0.000001981928    -0.000001001471

  **** Optimization is complete! (in 5 steps) ****
    Final optimized geometry and variables:
    Molecular point group: c1

    Geometry (in Angstrom), charge = 0, multiplicity = 1:

    O            0.738309207734     1.262515992482     0.149349429441
    C            0.547961877766     0.094422622745     0.144919919972
    C           -0.799084061342    -0.584603547673     0.125260472452
    O            1.525738424912    -0.796502965556     0.157351859907
    C           -2.003993861258     0.363816513277     0.132362490853
    H           -0.814338459145    -1.240557220383    -0.738325340520
    H           -0.817918729939    -1.254202783967     0.977836336683
    C           -3.087896565888    -0.041369400891    -0.860582511517
    H           -1.665338809855     1.370482046800    -0.066709497658
    H           -2.427602151942     0.389530594681     1.130297466041
    H           -2.710724751506    -0.025313613260    -1.877649075909
    H           -3.932088626562     0.635942670239    -0.809705523516
    H           -3.455095120334    -1.042617719499    -0.659755206824
    C            2.851101929976    -0.305979985388     0.175524726867
    H            3.047948247118     0.293359616681    -0.700964706574
    H            3.489609129641    -1.174369034119     0.183484756814
    H            3.024223934254     0.292209565235     1.057775293088

  Mulliken Charges: (a.u.)
   Center  Symbol    Alpha    Beta     Spin     Total
       1     O     4.19599  4.19599  0.00000 -0.39198
       2     C     2.80153  2.80153  0.00000  0.39693
       3     C     3.10475  3.10475  0.00000 -0.20950
       4     O     4.14753  4.14753  0.00000 -0.29506
       5     C     3.08775  3.08775  0.00000 -0.17550
       6     H     0.43967  0.43967  0.00000  0.12066
       7     H     0.43657  0.43657  0.00000  0.12685
       8     C     3.14905  3.14905  0.00000 -0.29810
       9     H     0.43580  0.43580  0.00000  0.12841
      10     H     0.45317  0.45317  0.00000  0.09365
      11     H     0.45459  0.45459  0.00000  0.09083
      12     H     0.44751  0.44751  0.00000  0.10498
      13     H     0.45567  0.45567  0.00000  0.08867
      14     C     3.03636  3.03636  0.00000 -0.07272
      15     H     0.45436  0.45436  0.00000  0.09128
      16     H     0.44541  0.44541  0.00000  0.10918
      17     H     0.45429  0.45429  0.00000  0.09143

   Total alpha = 28.00000, Total beta = 28.00000, Total charge = -0.00000
