                              Psi4 1.0.54 Driver

  ==> Input File <==

--------------------------------------------------------------------------
set {
	reference rhf
	basis cc-pvtz
}

set_num_threads( 4 )
memory 2 gb

molecule MOL {
0 1

O	 2.415011	 0.252040	 -0.937229
C	 1.704209	 0.119472	 -0.000093
C	 0.380337	 -0.600947	 -0.000234
O	 1.989593	 0.599917	 1.199134
C	 -0.824290	 0.329213	 -0.000115
H	 0.371455	 -1.255476	 -0.865660
H	 0.371410	 -1.255787	 0.864952
C	 -2.146151	 -0.432825	 -0.000068
H	 -0.773936	 0.979158	 -0.866319
H	 -0.773838	 0.979034	 0.866186
C	 -3.366283	 0.483552	 0.000557
H	 -2.189286	 -1.084450	 -0.869996
H	 -2.188867	 -1.085083	 0.869399
C	 -4.687436	 -0.278003	 0.000108
H	 -3.325150	 1.134819	 -0.867957
H	 -3.325087	 1.133730	 0.869885
H	 -4.773783	 -0.912098	 -0.876078
H	 -5.531922	 0.401392	 0.000363
H	 -4.773901	 -0.912898	 0.875703
C	 3.207650	 1.301825	 1.343999
H	 4.045909	 0.664076	 1.105650
H	 3.254163	 1.607195	 2.376682
H	 3.228300	 2.167015	 0.698063

	symmetry c1
}
set optking {
	frozen_dihedral = ("
		1 2 3 6
	")
}

ee,wfn = optimize('scf', return_wfn=True)
oeprop( wfn, 'DIPOLE', 'QUADRUPOLE', 'MULLIKEN_CHARGES')
f=open( 'psi4out.xyz', 'w' )
f.write( "23  " )
f.write( str(ee) + "\n" )
f.write( MOL.save_string_xyz() )
f.close()
--------------------------------------------------------------------------

    Molecular point group: c1
  Charge       = 0
  Multiplicity = 1
  Basis Set: CC-PVTZ
  Basis Set:
  @DF-RHF Final Energy:  -423.12945351254399
    Total Energy =                       -423.1294535125448419
    Molecular point group: c1
  Basis Set: CC-PVTZ
  Basis Set:
  Basis Set: CC-PVTZ
  Basis Set:
  @DF-RHF Final Energy:  -423.12949436338045
    Total Energy =                       -423.1294943633805588
  Basis Set: CC-PVTZ
  Basis Set:
  Basis Set: CC-PVTZ
  Basis Set:
  @DF-RHF Final Energy:  -423.12993869687222
    Total Energy =                       -423.1299386968723866
  Basis Set: CC-PVTZ
  Basis Set:
  Basis Set: CC-PVTZ
  Basis Set:
  @DF-RHF Final Energy:  -423.12998974266702
    Total Energy =                       -423.1299897426671350
  Basis Set: CC-PVTZ
  Basis Set:
  Basis Set: CC-PVTZ
  Basis Set:
  @DF-RHF Final Energy:  -423.12999164079866
    Total Energy =                       -423.1299916407988349
  Basis Set: CC-PVTZ
  Basis Set:
  Charge       = 0
  Multiplicity = 1
  Basis Set: CC-PVTZ
  Basis Set:

    Orbital Energies (a.u.)
    -----------------------

    Doubly Occupied:

       1A    -20.596935     2A    -20.532144     3A    -11.363042
       4A    -11.278318     5A    -11.231957     6A    -11.227291
       7A    -11.219768     8A    -11.218168     9A    -11.210279
      10A     -1.471516    11A     -1.364202    12A     -1.098567
      13A     -1.046762    14A     -0.985621    15A     -0.935359
      16A     -0.847394    17A     -0.799124    18A     -0.775201
      19A     -0.696137    20A     -0.683291    21A     -0.675845
      22A     -0.655257    23A     -0.609069    24A     -0.595531
      25A     -0.580253    26A     -0.572860    27A     -0.541967
      28A     -0.536864    29A     -0.525166    30A     -0.506674
      31A     -0.493028    32A     -0.477874    33A     -0.471436
      34A     -0.468358    35A     -0.457444    36A     -0.430320

  @DF-RHF Final Energy:  -423.12999185505288

   => Energetics <=

    Nuclear Repulsion Energy =            455.5164315228832379
    One-Electron Energy =               -1478.9348004868370481
    Two-Electron Energy =                 600.2883771089008178
    DFT Exchange-Correlation Energy =       0.0000000000000000
    Empirical Dispersion Energy =           0.0000000000000000
    PCM Polarization Energy =               0.0000000000000000
    EFP Energy =                            0.0000000000000000
    Total Energy =                       -423.1299918550529355
    Molecular point group: c1
  Basis Set: CC-PVTZ
  Basis Set:

  -Total Gradient:
     Atom            X                  Y                   Z
    ------   -----------------  -----------------  -----------------
       1       -0.000013120081    -0.000015032720     0.000031844292
       2        0.000015568688     0.000037865684    -0.000009891766
       3       -0.000007383847    -0.000031182543     0.000008043432
       4        0.000002918181    -0.000000591014    -0.000009205866
       5       -0.000005420311     0.000009307598     0.000007660436
       6       -0.000002235634    -0.000013300473    -0.000007030872
       7        0.000006678218     0.000013045471    -0.000023607557
       8        0.000009099847    -0.000001136874    -0.000010598097
       9       -0.000004452378    -0.000020858826     0.000016037964
      10       -0.000014448209     0.000022616239    -0.000003621560
      11        0.000006063946     0.000010350211     0.000000738030
      12        0.000006175731     0.000003606483    -0.000003675568
      13        0.000003833985    -0.000003167390    -0.000006283977
      14        0.000001158431    -0.000003135793     0.000010350337
      15       -0.000000605594    -0.000005436898     0.000002146126
      16       -0.000002730459     0.000003472985    -0.000004495456
      17        0.000002599267     0.000004171585     0.000001548422
      18        0.000003153499    -0.000001215408     0.000002972337
      19       -0.000002697767    -0.000000750974    -0.000001853198
      20        0.000019399005     0.000008331624    -0.000003441667
      21       -0.000008842333     0.000000478394    -0.000000889851
      22       -0.000006235521    -0.000003134316    -0.000000634508
      23       -0.000008476665    -0.000014303042     0.000003888567

  **** Optimization is complete! (in 6 steps) ****
    Final optimized geometry and variables:
    Molecular point group: c1

    Geometry (in Angstrom), charge = 0, multiplicity = 1:

    O            2.493444018465     0.025495081381    -1.117992750465
    C            1.809605163618    -0.141813182463    -0.165705514663
    C            0.489506091763    -0.866098601516    -0.173451765666
    O            2.118285385026     0.316322615045     1.036573832849
    C           -0.691059719621     0.111535609533    -0.170923907593
    H            0.465605643150    -1.481733353768    -1.061355936982
    H            0.437576242917    -1.507231187103     0.697885250682
    C           -2.037636705265    -0.604415713019    -0.206274260563
    H           -0.607306448791     0.769358669559    -1.030539150833
    H           -0.634847513257     0.738600386273     0.712322913836
    C           -3.225899184881     0.352968379860    -0.208772851673
    H           -2.085159642865    -1.237770479479    -1.088535515899
    H           -2.113816612839    -1.268728621937     0.651142429122
    C           -4.571121418169    -0.364477468221    -0.242058874768
    H           -3.149916271924     1.016096533384    -1.065928934851
    H           -3.177321328131     0.986981435056     0.672184273053
    H           -4.664210684347    -0.980542264950    -1.130169615142
    H           -5.392523246670     0.342560709014    -0.242946545845
    H           -4.691840315542    -1.010457340296     0.621187849203
    C            3.319391513725     1.050489493862     1.161952835787
    H            4.167599520037     0.442900786836     0.883744650484
    H            3.388450388682     1.333765552891     2.199714273254
    H            3.295577480695     1.930014481169     0.535795746151

  Mulliken Charges: (a.u.)
   Center  Symbol    Alpha    Beta     Spin     Total
       1     O     4.20264  4.20264  0.00000 -0.40528
       2     C     2.80726  2.80726  0.00000  0.38547
       3     C     3.07605  3.07605  0.00000 -0.15210
       4     O     4.15046  4.15046  0.00000 -0.30092
       5     C     3.10206  3.10206  0.00000 -0.20412
       6     H     0.43850  0.43850  0.00000  0.12300
       7     H     0.44520  0.44520  0.00000  0.10960
       8     C     3.09073  3.09073  0.00000 -0.18146
       9     H     0.44554  0.44554  0.00000  0.10892
      10     H     0.44548  0.44548  0.00000  0.10904
      11     C     3.08459  3.08459  0.00000 -0.16917
      12     H     0.45279  0.45279  0.00000  0.09442
      13     H     0.45407  0.45407  0.00000  0.09186
      14     C     3.15024  3.15024  0.00000 -0.30048
      15     H     0.45306  0.45306  0.00000  0.09389
      16     H     0.45388  0.45388  0.00000  0.09224
      17     H     0.45448  0.45448  0.00000  0.09105
      18     H     0.44759  0.44759  0.00000  0.10481
      19     H     0.45495  0.45495  0.00000  0.09011
      20     C     3.03775  3.03775  0.00000 -0.07549
      21     H     0.45264  0.45264  0.00000  0.09472
      22     H     0.44554  0.44554  0.00000  0.10892
      23     H     0.45451  0.45451  0.00000  0.09097

   Total alpha = 36.00000, Total beta = 36.00000, Total charge =  0.00000

*** Psi4 exiting successfully. Buy a developer a beer!
