  ==> Input File <==

--------------------------------------------------------------------------
set {
	reference rhf
	basis 6-31G*
}

set_num_threads( 1 )
memory 2 gb

molecule MOL {
0 1

H	 -3.261111	 -0.295142	 1.469456
C	 -3.306842	 -0.277400	 0.373456
C	 -2.660244	 0.921717	 -0.272021
O	 -3.838538	 -1.161155	 -0.216482
C	 -3.687693	 1.947915	 -0.769537
H	 -1.969370	 1.361428	 0.437948
H	 -2.080893	 0.555612	 -1.118765
C	 -4.466051	 2.628793	 0.359118
H	 -3.166741	 2.700700	 -1.353668
H	 -4.382083	 1.461689	 -1.453030
C	 -5.477957	 3.656902	 -0.150640
H	 -3.763540	 3.114089	 1.033516
H	 -4.985015	 1.879446	 0.953840
C	 -6.243172	 4.347438	 0.981418
H	 -4.955713	 4.396560	 -0.752219
H	 -6.186876	 3.165783	 -0.815937
C	 -7.326899	 5.326873	 0.516322
H	 -5.538445	 4.871407	 1.625242
H	 -6.710331	 3.584969	 1.601189
C	 -6.796572	 6.561771	 -0.214021
H	 -7.890843	 5.652971	 1.386710
H	 -8.034184	 4.803930	 -0.124147
H	 -6.073919	 7.096152	 0.397108
H	 -6.312101	 6.303796	 -1.149815
H	 -7.604876	 7.248882	 -0.445362

	symmetry c1
}
set optking {
	frozen_dihedral = ("
		6 3 5 8,
		3 5 8 12,
		12 8 11 14,
		8 11 14 18,
		20 17 14 18
	")
}

ee = energy('scf')
oeprop('DIPOLE', 'QUADRUPOLE', 'MULLIKEN_CHARGES')
f=open( 'psi4out.xyz', 'w' )
f.write( "25  " )
f.write( str(ee) + "\n" )
f.write( MOL.save_string_xyz() )
f.close()
--------------------------------------------------------------------------

    Molecular point group: c1

    Geometry (in Angstrom), charge = 0, multiplicity = 1:

       Center              X                  Y                   Z               Mass
    ------------   -----------------  -----------------  -----------------  -----------------
           H          1.613588875247    -2.957884627861     1.405985596811     1.007825032070
           C          1.567857875247    -2.940142627861     0.309985596811    12.000000000000
           C          2.214455875247    -1.741025627861    -0.335491403189    12.000000000000
           O          1.036161875247    -3.823897627861    -0.279952403189    15.994914619560
           C          1.187006875247    -0.714827627861    -0.833007403189    12.000000000000
           H          2.905329875247    -1.301314627861     0.374477596811     1.007825032070
           H          2.793806875247    -2.107130627861    -1.182235403189     1.007825032070
           C          0.408648875247    -0.033949627861     0.295647596811    12.000000000000
           H          1.707958875247     0.037957372139    -1.417138403189     1.007825032070
           H          0.492616875247    -1.201053627861    -1.516500403189     1.007825032070
           C         -0.603257124753     0.994159372139    -0.214110403189    12.000000000000
           H          1.111159875247     0.451346372139     0.970045596811     1.007825032070
           H         -0.110315124753    -0.783296627861     0.890369596811     1.007825032070
           C         -1.368472124753     1.684695372139     0.917947596811    12.000000000000
           H         -0.081013124753     1.733817372139    -0.815689403189     1.007825032070
           H         -1.312176124753     0.503040372139    -0.879407403189     1.007825032070
           C         -2.452199124753     2.664130372139     0.452851596811    12.000000000000
           H         -0.663745124753     2.208664372139     1.561771596811     1.007825032070
           H         -1.835631124753     0.922226372139     1.537718596811     1.007825032070
           C         -1.921872124753     3.899028372139    -0.277491403189    12.000000000000
           H         -3.016143124753     2.990228372139     1.323239596811     1.007825032070
           H         -3.159484124753     2.141187372139    -0.187617403189     1.007825032070
           H         -1.199219124753     4.433409372139     0.333637596811     1.007825032070
           H         -1.437401124753     3.641053372139    -1.213285403189     1.007825032070
           H         -2.730176124753     4.586139372139    -0.508832403189     1.007825032070

  Charge       = 0
  Multiplicity = 1
  Basis Set: 6-31G*
  Basis Set:

    Orbital Energies (a.u.)
    -----------------------

    Doubly Occupied:

       1A    -20.562293     2A    -11.325821     3A    -11.234172
       4A    -11.232771     5A    -11.224980     6A    -11.219623
       7A    -11.218148     8A    -11.217463     9A    -11.210693
      10A     -1.402341    11A     -1.102983    12A     -1.068646
      13A     -1.012937    14A     -0.943241    15A     -0.877774
      16A     -0.825871    17A     -0.782358    18A     -0.770620
      19A     -0.684247    20A     -0.654362    21A     -0.632226
      22A     -0.621898    23A     -0.597392    24A     -0.590801
      25A     -0.580629    26A     -0.550951    27A     -0.537350
      28A     -0.522524    29A     -0.507859    30A     -0.495402
      31A     -0.490555    32A     -0.479114    33A     -0.464929
      34A     -0.459245    35A     -0.440385    36A     -0.407789

  @DF-RHF Final Energy:  -387.11985663904977

   => Energetics <=

    Nuclear Repulsion Energy =            439.8977254888551442
    One-Electron Energy =               -1396.1344779427449794
    Two-Electron Energy =                 569.1168958148410866
    DFT Exchange-Correlation Energy =       0.0000000000000000
    Empirical Dispersion Energy =           0.0000000000000000
    PCM Polarization Energy =               0.0000000000000000
    EFP Energy =                            0.0000000000000000
    Total Energy =                       -387.1198566390487485

  Mulliken Charges: (a.u.)
   Center  Symbol    Alpha    Beta     Spin     Total
       1     H     0.43006  0.43006  0.00000  0.13987
       2     C     2.84038  2.84038  0.00000  0.31924
       3     C     3.20281  3.20281  0.00000 -0.40562
       4     O     4.23719  4.23719  0.00000 -0.47438
       5     C     3.15983  3.15983  0.00000 -0.31965
       6     H     0.41557  0.41557  0.00000  0.16886
       7     H     0.39950  0.39950  0.00000  0.20099
       8     C     3.15713  3.15713  0.00000 -0.31426
       9     H     0.41483  0.41483  0.00000  0.17033
      10     H     0.40719  0.40719  0.00000  0.18561
      11     C     3.15436  3.15436  0.00000 -0.30873
      12     H     0.42246  0.42246  0.00000  0.15507
      13     H     0.42069  0.42069  0.00000  0.15863
      14     C     3.15310  3.15310  0.00000 -0.30620
      15     H     0.42065  0.42065  0.00000  0.15871
      16     H     0.42081  0.42081  0.00000  0.15838
      17     C     3.15278  3.15278  0.00000 -0.30555
      18     H     0.42429  0.42429  0.00000  0.15142
      19     H     0.42127  0.42127  0.00000  0.15746
      20     C     3.24139  3.24139  0.00000 -0.48279
      21     H     0.42034  0.42034  0.00000  0.15932
      22     H     0.42227  0.42227  0.00000  0.15546
      23     H     0.42241  0.42241  0.00000  0.15519
      24     H     0.42018  0.42018  0.00000  0.15965
      25     H     0.41850  0.41850  0.00000  0.16299

   Total alpha = 36.00000, Total beta = 36.00000, Total charge =  0.00000
