  ==> Input File <==

--------------------------------------------------------------------------
set {
	reference rhf
	basis 6-31G*
}

set_num_threads( 4 )
memory 2 gb

molecule MOL {
0 1

H	 2.591676	 2.013956	 0.335017
O	 3.341076	 1.666752	 -0.126416
C	 3.569581	 0.339145	 0.272707
C	 2.539767	 -0.640285	 -0.279495
H	 4.553106	 0.084646	 -0.100901
H	 3.608576	 0.269204	 1.359154
C	 1.115811	 -0.397273	 0.226630
H	 2.556196	 -0.582511	 -1.364741
H	 2.852081	 -1.648031	 -0.010655
C	 0.237144	 0.320470	 -0.801770
H	 1.156846	 0.188558	 1.140678
H	 0.655904	 -1.351062	 0.485692
C	 -1.223665	 0.512787	 -0.378223
H	 0.675398	 1.289698	 -1.032806
H	 0.254651	 -0.248370	 -1.729032
C	 -1.431682	 1.459276	 0.807258
H	 -1.778793	 0.898101	 -1.230972
H	 -1.661383	 -0.457065	 -0.146646
C	 -2.908861	 1.701410	 1.124671
H	 -0.950069	 2.412595	 0.594323
H	 -0.942713	 1.062151	 1.693544
C	 -3.119272	 2.640790	 2.311666
H	 -3.402750	 2.113103	 0.247135
H	 -3.393951	 0.748964	 1.328189
H	 -2.673315	 3.613767	 2.125483
H	 -4.175571	 2.793945	 2.510187
H	 -2.668209	 2.239188	 3.214783

	symmetry c1
}
set optking {
	frozen_dihedral = ("
		10 7 4 8
	")
}

ee = optimize('scf')
oeprop('DIPOLE', 'QUADRUPOLE', 'MULLIKEN_CHARGES')
f=open( 'psi4out.xyz', 'w' )
f.write( "27  " )
f.write( str(ee) + "\n" )
f.write( MOL.save_string_xyz() )
f.close()
--------------------------------------------------------------------------

    Molecular point group: c1
  Charge       = 0
  Multiplicity = 1
  Basis Set: 6-31G*
  Basis Set:
  @DF-RHF Final Energy:  -388.27717108998644
    Total Energy =                       -388.2771710899864956
    Molecular point group: c1
  Basis Set: 6-31G*
  Basis Set:
  Basis Set: 6-31G*
  Basis Set:
  @DF-RHF Final Energy:  -388.27750830943393
    Total Energy =                       -388.2775083094331876
  Basis Set: 6-31G*
  Basis Set:
  Basis Set: 6-31G*
  Basis Set:
  @DF-RHF Final Energy:  -388.27756580080427
    Total Energy =                       -388.2775658008040409
  Basis Set: 6-31G*
  Basis Set:
  Basis Set: 6-31G*
  Basis Set:
  @DF-RHF Final Energy:  -388.27757572777381
    Total Energy =                       -388.2775757277740922
  Basis Set: 6-31G*
  Basis Set:
  Basis Set: 6-31G*
  Basis Set:
  @DF-RHF Final Energy:  -388.27761173027551
    Total Energy =                       -388.2776117302755665
  Basis Set: 6-31G*
  Basis Set:
  Basis Set: 6-31G*
  Basis Set:
  @DF-RHF Final Energy:  -388.27761824802764
    Total Energy =                       -388.2776182480278067
  Basis Set: 6-31G*
  Basis Set:
  Charge       = 0
  Multiplicity = 1
  Basis Set: 6-31G*
  Basis Set:

    Orbital Energies (a.u.)
    -----------------------

    Doubly Occupied:

       1A    -20.552860     2A    -11.266960     3A    -11.220072
       4A    -11.216979     5A    -11.216161     6A    -11.215755
       7A    -11.215317     8A    -11.215105     9A    -11.210261
      10A     -1.359404    11A     -1.094331    12A     -1.060456
      13A     -1.011449    14A     -0.948907    15A     -0.887988
      16A     -0.821375    17A     -0.801699    18A     -0.778218
      19A     -0.696145    20A     -0.648846    21A     -0.640668
      22A     -0.613117    23A     -0.594599    24A     -0.583000
      25A     -0.574601    26A     -0.558201    27A     -0.543798
      28A     -0.531468    29A     -0.512304    30A     -0.496129
      31A     -0.488634    32A     -0.472798    33A     -0.466636
      34A     -0.457152    35A     -0.450964    36A     -0.440430
      37A     -0.422851

  @DF-RHF Final Energy:  -388.27761821763266

   => Energetics <=

    Nuclear Repulsion Energy =            467.8220737026198890
    One-Electron Energy =               -1453.6281059999719218
    Two-Electron Energy =                 597.5284140797191412
    DFT Exchange-Correlation Energy =       0.0000000000000000
    Empirical Dispersion Energy =           0.0000000000000000
    PCM Polarization Energy =               0.0000000000000000
    EFP Energy =                            0.0000000000000000
    Total Energy =                       -388.2776182176328348
    Molecular point group: c1
  Basis Set: 6-31G*
  Basis Set:

  -Total Gradient:
     Atom            X                  Y                   Z
    ------   -----------------  -----------------  -----------------
       1       -0.000006163889     0.000009000074    -0.000006748313
       2       -0.000005496298    -0.000005377413     0.000011276767
       3        0.000023086237    -0.000009208039    -0.000026679936
       4       -0.000476292143    -0.002685392676    -0.000447742199
       5        0.000002463410    -0.000014767251     0.000005539118
       6       -0.000013807188     0.000004379295     0.000001172162
       7        0.000512384952     0.002031003636     0.000809068676
       8        0.000304790810     0.001797174191     0.000185684753
       9        0.000031260549     0.000002309602    -0.000010831948
      10       -0.000361088181    -0.001155928749    -0.000542570230
      11       -0.000023031801     0.000000436985     0.000004339826
      12       -0.000000781282     0.000024476912     0.000011005270
      13        0.000004364786    -0.000027485652     0.000018368190
      14        0.000010811178     0.000001731437     0.000013550343
      15       -0.000007172857     0.000006123257    -0.000001247287
      16       -0.000007251174     0.000025213261    -0.000035830091
      17        0.000004263106    -0.000004917579     0.000008002950
      18        0.000004129632    -0.000016419829    -0.000000890469
      19        0.000002752248     0.000013720274    -0.000008508751
      20        0.000011503376     0.000005218903    -0.000011076612
      21       -0.000012889061     0.000011377451     0.000006427561
      22       -0.000001147068    -0.000019851044     0.000019672995
      23        0.000006832212     0.000015404376     0.000004535362
      24       -0.000003214544    -0.000000249678    -0.000014520114
      25       -0.000004028337    -0.000007338042    -0.000006630644
      26       -0.000000259088    -0.000005890486     0.000006770172
      27        0.000003980415     0.000005256784     0.000007862451

  **** Optimization is complete! (in 7 steps) ****
    Final optimized geometry and variables:
    Molecular point group: c1

    Geometry (in Angstrom), charge = 0, multiplicity = 1:

    H            2.222785590460     1.105606733450     0.097397149560
    O            2.987510610504     0.823740861289    -0.383733414888
    C            3.280499320011    -0.512737854157    -0.063145498935
    C            2.292061361255    -1.506613133600    -0.664976932819
    H            4.272872900141    -0.699463237055    -0.453392412676
    H            3.327808952685    -0.641368545989     1.017418894016
    C            0.838864016598    -1.316057047299    -0.181599061764
    H            2.336835608101    -1.405798351648    -1.745638495691
    H            2.640053338738    -2.507563017398    -0.422612385083
    C           -0.049950298125    -0.579043502215    -1.190992330999
    H            0.838214346457    -0.798406893555     0.775770615493
    H            0.392089638526    -2.287298242508     0.015247632804
    C           -1.502633333431    -0.383013438301    -0.742877509272
    H            0.390366957595     0.385426253624    -1.433603526323
    H           -0.047746510907    -1.147839531176    -2.117877139856
    C           -1.691509166771     0.594966055358     0.420378242563
    H           -2.077710923865    -0.022825316646    -1.593252669923
    H           -1.930713584509    -1.348039459947    -0.475709984373
    C           -3.162493942305     0.832347282504     0.768745636376
    H           -1.227022486540     1.547417494663     0.166758025451
    H           -1.177083061714     0.228780300537     1.305833450854
    C           -3.352418402471     1.801071900466     1.935402552830
    H           -3.681907077547     1.215739707101    -0.106757068789
    H           -3.632415919615    -0.118860837227     1.009639914954
    H           -2.922151234712     2.773294150997     1.711889716452
    H           -4.404845552798     1.948857083416     2.156946379987
    H           -2.874325485889     1.428325747269     2.837023583005

  Mulliken Charges: (a.u.)
   Center  Symbol    Alpha    Beta     Spin     Total
       1     H     0.27931  0.27931  0.00000  0.44139
       2     O     4.37060  4.37060  0.00000 -0.74119
       3     C     2.99903  2.99903  0.00000  0.00194
       4     C     3.16339  3.16339  0.00000 -0.32677
       5     H     0.41534  0.41534  0.00000  0.16932
       6     H     0.43179  0.43179  0.00000  0.13642
       7     C     3.16699  3.16699  0.00000 -0.33398
       8     H     0.41344  0.41344  0.00000  0.17312
       9     H     0.42112  0.42112  0.00000  0.15776
      10     C     3.15646  3.15646  0.00000 -0.31291
      11     H     0.42653  0.42653  0.00000  0.14695
      12     H     0.41787  0.41787  0.00000  0.16427
      13     C     3.15383  3.15383  0.00000 -0.30766
      14     H     0.41877  0.41877  0.00000  0.16246
      15     H     0.41940  0.41940  0.00000  0.16119
      16     C     3.15365  3.15365  0.00000 -0.30730
      17     H     0.42062  0.42062  0.00000  0.15877
      18     H     0.42388  0.42388  0.00000  0.15223
      19     C     3.15088  3.15088  0.00000 -0.30176
      20     H     0.42591  0.42591  0.00000  0.14818
      21     H     0.42397  0.42397  0.00000  0.15206
      22     C     3.23942  3.23942  0.00000 -0.47884
      23     H     0.42232  0.42232  0.00000  0.15537
      24     H     0.42269  0.42269  0.00000  0.15463
      25     H     0.42168  0.42168  0.00000  0.15664
      26     H     0.41881  0.41881  0.00000  0.16237
      27     H     0.42231  0.42231  0.00000  0.15538

   Total alpha = 37.00000, Total beta = 37.00000, Total charge =  0.00000
