                              Psi4 1.0.54 Driver

  ==> Input File <==

--------------------------------------------------------------------------
set {
	reference rhf
	basis cc-pvtz
}

set_num_threads( 4 )
memory 2 gb

molecule MOL {
0 1

H	 -1.835082	 1.385983	 0.000069
C	 -1.300516	 0.441153	 -0.000028
O	 -0.006604	 0.654344	 -0.000106
O	 -1.828920	 -0.612308	 0.000113
C	 0.445098	 1.987719	 0.218754
C	 1.954565	 1.976545	 0.173062
H	 0.077283	 2.328334	 1.176174
H	 0.027389	 2.627824	 -0.545280
H	 2.358697	 1.328878	 0.940640
H	 2.331353	 2.979119	 0.336554
H	 2.308557	 1.629845	 -0.789465

	symmetry c1
}
set optking {
	frozen_dihedral = ("
		5 3 2 4
	")
}

ee,wfn = optimize('scf', return_wfn=True)
oeprop( wfn, 'DIPOLE', 'QUADRUPOLE', 'MULLIKEN_CHARGES')
f=open( 'psi4out.xyz', 'w' )
f.write( "11  " )
f.write( str(ee) + "\n" )
f.write( MOL.save_string_xyz() )
f.close()
--------------------------------------------------------------------------

    Molecular point group: c1
  Charge       = 0
  Multiplicity = 1
  Basis Set: CC-PVTZ
  Basis Set:
  @DF-RHF Final Energy:  -266.92231657561143
    Total Energy =                       -266.9223165756113190
    Molecular point group: c1
  Basis Set: CC-PVTZ
  Basis Set:
  Basis Set: CC-PVTZ
  Basis Set:
  @DF-RHF Final Energy:  -266.92329317105418
    Total Energy =                       -266.9232931710542971
  Basis Set: CC-PVTZ
  Basis Set:
  Basis Set: CC-PVTZ
  Basis Set:
  @DF-RHF Final Energy:  -266.92331846937634
    Total Energy =                       -266.9233184693763974
  Basis Set: CC-PVTZ
  Basis Set:
  Basis Set: CC-PVTZ
  Basis Set:
  @DF-RHF Final Energy:  -266.92346884092899
    Total Energy =                       -266.9234688409292175
  Basis Set: CC-PVTZ
  Basis Set:
  Basis Set: CC-PVTZ
  Basis Set:
  @DF-RHF Final Energy:  -266.92349382307822
    Total Energy =                       -266.9234938230784451
  Basis Set: CC-PVTZ
  Basis Set:
  Basis Set: CC-PVTZ
  Basis Set:
  @DF-RHF Final Energy:  -266.92349645530794
    Total Energy =                       -266.9234964553079408
  Basis Set: CC-PVTZ
  Basis Set:
  Charge       = 0
  Multiplicity = 1
  Basis Set: CC-PVTZ
  Basis Set:

    Orbital Energies (a.u.)
    -----------------------

    Doubly Occupied:

       1A    -20.605285     2A    -20.544275     3A    -11.371632
       4A    -11.304575     5A    -11.232065     6A     -1.476821
       7A     -1.383133     8A     -1.056671     9A     -0.889816
      10A     -0.848499    11A     -0.739972    12A     -0.698552
      13A     -0.671245    14A     -0.604106    15A     -0.577947
      16A     -0.565353    17A     -0.533049    18A     -0.522742
      19A     -0.460250    20A     -0.453399

  @DF-RHF Final Energy:  -266.92349660109403

   => Energetics <=

    Nuclear Repulsion Energy =            176.6707071262557349
    One-Electron Energy =                -714.1096276467055759
    Two-Electron Energy =                 270.5154239193557260
    DFT Exchange-Correlation Energy =       0.0000000000000000
    Empirical Dispersion Energy =           0.0000000000000000
    PCM Polarization Energy =               0.0000000000000000
    EFP Energy =                            0.0000000000000000
    Total Energy =                       -266.9234966010941434
    Molecular point group: c1
  Basis Set: CC-PVTZ
  Basis Set:

  -Total Gradient:
     Atom            X                  Y                   Z
    ------   -----------------  -----------------  -----------------
       1       -0.000005819550     0.000015045728    -0.000009660858
       2        0.000135859998    -0.000255717454    -0.001624491525
       3        0.000146694529     0.000217328032    -0.001061240588
       4       -0.000141029508     0.000148771414     0.001505412075
       5       -0.000131157972    -0.000102754197     0.001190209484
       6        0.000004335638    -0.000012679848     0.000002651769
       7       -0.000001735801    -0.000001996073     0.000001881687
       8       -0.000002969888    -0.000003846073    -0.000003164092
       9        0.000003299280    -0.000000237907    -0.000000533576
      10       -0.000007286196    -0.000002965765    -0.000001054368
      11       -0.000000190534    -0.000000947858    -0.000000010008

  **** Optimization is complete! (in 7 steps) ****
    Final optimized geometry and variables:
    Molecular point group: c1

    Geometry (in Angstrom), charge = 0, multiplicity = 1:

    H           -1.740241640832     0.479168793510    -0.269680398744
    C           -1.165141339178    -0.437829303920    -0.131806237270
    O            0.130829560405    -0.238593888385     0.002851635208
    O           -1.659509704938    -1.500978840885    -0.107300713899
    C            0.591454437049     1.090460393648     0.172761707373
    C            2.098029363100     1.084872840617     0.064554346837
    H            0.277467038890     1.454649461826     1.143922536505
    H            0.154582176312     1.727717601445    -0.587985209243
    H            2.530724300309     0.445115393137     0.822238317446
    H            2.480022753320     2.089550846872     0.200133541155
    H            2.408624063534     0.723917857691    -0.907233426221

  Mulliken Charges: (a.u.)
   Center  Symbol    Alpha    Beta     Spin     Total
       1     H     0.47562  0.47562  0.00000  0.04876
       2     C     2.84573  2.84573  0.00000  0.30854
       3     O     4.12432  4.12432  0.00000 -0.24863
       4     O     4.17574  4.17574  0.00000 -0.35148
       5     C     2.97784  2.97784  0.00000  0.04433
       6     C     3.13316  3.13316  0.00000 -0.26631
       7     H     0.45707  0.45707  0.00000  0.08587
       8     H     0.46194  0.46194  0.00000  0.07612
       9     H     0.44566  0.44566  0.00000  0.10868
      10     H     0.45531  0.45531  0.00000  0.08937
      11     H     0.44762  0.44762  0.00000  0.10476

   Total alpha = 20.00000, Total beta = 20.00000, Total charge = -0.00000

*** Psi4 exiting successfully. Buy a developer a beer!
