                              Psi4 1.0.54 Driver

  ==> Input File <==

--------------------------------------------------------------------------
set {
	reference rhf
	basis cc-pvtz
}

set_num_threads( 4 )
memory 2 gb

molecule MOL {
0 1

H	 -2.266619	 1.169943	 0.000098
O	 -1.438073	 1.611259	 0.000041
C	 -0.408657	 0.734701	 0.000005
C	 -0.071942	 0.166759	 1.214696
C	 0.287633	 0.409930	 -1.158363
H	 -0.633285	 0.443148	 2.085577
C	 0.967819	 -0.735701	 1.288386
C	 1.327596	 -0.499619	 -1.054796
C	 -0.081058	 1.030570	 -2.483156
H	 1.223545	 -1.172565	 2.234818
C	 1.675142	 -1.074749	 0.151210
H	 1.875562	 -0.761079	 -1.940990
H	 0.017882	 2.112293	 -2.462981
H	 0.563389	 0.663700	 -3.268991
H	 -1.102996	 0.796026	 -2.767682
H	 2.485155	 -1.776016	 0.200946

	symmetry c1
}
set optking {
	frozen_dihedral = ("
		4 3 2 1
	")
}

ee,wfn = optimize('scf', return_wfn=True)
oeprop( wfn, 'DIPOLE', 'QUADRUPOLE', 'MULLIKEN_CHARGES')
f=open( 'psi4out.xyz', 'w' )
f.write( "16  " )
f.write( str(ee) + "\n" )
f.write( MOL.save_string_xyz() )
f.close()
--------------------------------------------------------------------------

    Molecular point group: c1
  Charge       = 0
  Multiplicity = 1
  Basis Set: CC-PVTZ
  Basis Set:
  @DF-RHF Final Energy:  -344.71495567215851
    Total Energy =                       -344.7149556721587942
    Molecular point group: c1
  Basis Set: CC-PVTZ
  Basis Set:
  Basis Set: CC-PVTZ
  Basis Set:
  @DF-RHF Final Energy:  -344.71615290426536
    Total Energy =                       -344.7161529042657548
  Basis Set: CC-PVTZ
  Basis Set:
  Basis Set: CC-PVTZ
  Basis Set:
  @DF-RHF Final Energy:  -344.71622405447368
    Total Energy =                       -344.7162240544736278
  Basis Set: CC-PVTZ
  Basis Set:
  Basis Set: CC-PVTZ
  Basis Set:
  @DF-RHF Final Energy:  -344.71623005333936
    Total Energy =                       -344.7162300533391885
  Basis Set: CC-PVTZ
  Basis Set:
  Basis Set: CC-PVTZ
  Basis Set:
  @DF-RHF Final Energy:  -344.71623170331571
    Total Energy =                       -344.7162317033157137
  Basis Set: CC-PVTZ
  Basis Set:
  Charge       = 0
  Multiplicity = 1
  Basis Set: CC-PVTZ
  Basis Set:

    Orbital Energies (a.u.)
    -----------------------

    Doubly Occupied:

       1A    -20.570013     2A    -11.282730     3A    -11.233010
       4A    -11.227261     5A    -11.225931     6A    -11.223390
       7A    -11.222723     8A    -11.216822     9A     -1.396383
      10A     -1.153480    11A     -1.047836    12A     -1.006843
      13A     -0.934444    14A     -0.834765    15A     -0.807226
      16A     -0.730591    17A     -0.669317    18A     -0.660372
      19A     -0.624945    20A     -0.594058    21A     -0.573771
      22A     -0.566520    23A     -0.545291    24A     -0.521945
      25A     -0.502640    26A     -0.487671    27A     -0.466491
      28A     -0.333648    29A     -0.321744

  @DF-RHF Final Energy:  -344.71623203322036

   => Energetics <=

    Nuclear Repulsion Energy =            350.4374939479095588
    One-Electron Energy =               -1162.3437306569944667
    Two-Electron Energy =                 467.1900046758645431
    DFT Exchange-Correlation Energy =       0.0000000000000000
    Empirical Dispersion Energy =           0.0000000000000000
    PCM Polarization Energy =               0.0000000000000000
    EFP Energy =                            0.0000000000000000
    Total Energy =                       -344.7162320332203080
    Molecular point group: c1
  Basis Set: CC-PVTZ
  Basis Set:

  -Total Gradient:
     Atom            X                  Y                   Z
    ------   -----------------  -----------------  -----------------
       1        0.000027201306    -0.000043513558    -0.000813765909
       2        0.000121608654     0.000325662491     0.001068525581
       3       -0.000521146318    -0.000762418720    -0.000340199868
       4        0.000336098649     0.000488374097     0.000104406630
       5        0.000010047576     0.000004207125    -0.000003147818
       6        0.000006862879    -0.000004974283    -0.000009299436
       7        0.000034428447    -0.000019610876    -0.000004478637
       8       -0.000026681883     0.000033083088    -0.000018853330
       9        0.000000661245    -0.000034473703    -0.000003184944
      10        0.000003370355    -0.000006352009     0.000001288955
      11       -0.000001992617     0.000002853905     0.000019731616
      12        0.000000471287    -0.000002392973    -0.000006872739
      13        0.000010535487     0.000015613436     0.000003616759
      14        0.000001434039     0.000000842176    -0.000006574388
      15        0.000000818104     0.000003318636     0.000006762476
      16       -0.000003717215    -0.000000218831     0.000002045054

  **** Optimization is complete! (in 6 steps) ****
    Final optimized geometry and variables:
    Molecular point group: c1

    Geometry (in Angstrom), charge = 0, multiplicity = 1:

    H           -2.481132045549     0.963183413323     0.238483155821
    O           -1.640523563307     1.386172313278     0.230005158944
    C           -0.632504900925     0.460466086495     0.289798089800
    C           -0.288451946015    -0.096150884806     1.504107788690
    C            0.064305095818     0.145139373206    -0.869505236658
    H           -0.836802335172     0.190820520511     2.380885190194
    C            0.754540248917    -0.999832574064     1.581811920593
    C            1.109624788465    -0.757726726161    -0.767802218742
    C           -0.310441351581     0.775342358440    -2.185528602678
    H            1.018023564733    -1.432499352510     2.527827796685
    C            1.455780457222    -1.332251018237     0.441605842536
    H            1.662611969585    -1.015941490912    -1.651527228656
    H           -0.261631903581     1.855257839527    -2.127632895008
    H            0.354882214140     0.443211029410    -2.970951573840
    H           -1.323699463025     0.517404589703    -2.471740122296
    H            2.270402835524    -2.029011932741     0.489942292431

  Mulliken Charges: (a.u.)
   Center  Symbol    Alpha    Beta     Spin     Total
       1     H     0.38898  0.38898  0.00000  0.22204
       2     O     4.18939  4.18939  0.00000 -0.37877
       3     C     2.88693  2.88693  0.00000  0.22613
       4     C     3.11017  3.11017  0.00000 -0.22034
       5     C     2.99187  2.99187  0.00000  0.01626
       6     H     0.41978  0.41978  0.00000  0.16044
       7     C     3.07708  3.07708  0.00000 -0.15417
       8     C     3.09478  3.09478  0.00000 -0.18956
       9     C     3.14135  3.14135  0.00000 -0.28271
      10     H     0.42215  0.42215  0.00000  0.15571
      11     C     3.07927  3.07927  0.00000 -0.15854
      12     H     0.42440  0.42440  0.00000  0.15120
      13     H     0.44250  0.44250  0.00000  0.11499
      14     H     0.45281  0.45281  0.00000  0.09438
      15     H     0.45450  0.45450  0.00000  0.09100
      16     H     0.42403  0.42403  0.00000  0.15194

   Total alpha = 29.00000, Total beta = 29.00000, Total charge =  0.00000

*** Psi4 exiting successfully. Buy a developer a beer!
