                              Psi4 1.0.54 Driver

  ==> Input File <==

--------------------------------------------------------------------------
set {
	reference rhf
	basis cc-pvtz
}

set_num_threads( 4 )
memory 2 gb

molecule MOL {
0 1

H	 5.014141	 -1.225811	 0.822234
C	 4.413263	 -1.179039	 -0.078668
C	 2.934017	 -1.014745	 0.253237
H	 4.772743	 -0.346210	 -0.673132
H	 4.591094	 -2.089106	 -0.642543
C	 2.054168	 -0.955862	 -0.993507
H	 2.796467	 -0.111017	 0.835728
H	 2.612485	 -1.843702	 0.879552
C	 0.567229	 -0.797938	 -0.691912
H	 2.374814	 -0.136502	 -1.624905
H	 2.190483	 -1.868548	 -1.566400
C	 0.166485	 0.574257	 -0.177158
H	 -0.011942	 -0.961764	 -1.597168
H	 0.231022	 -1.552944	 0.012679
C	 -1.180025	 0.697761	 0.509157
O	 0.866801	 1.523992	 -0.321501
C	 -2.285431	 -0.137488	 -0.145671
H	 -1.447360	 1.745713	 0.496200
H	 -1.065514	 0.394096	 1.546399
C	 -3.646545	 0.082747	 0.508954
H	 -2.348635	 0.118247	 -1.199806
H	 -2.034895	 -1.192387	 -0.096473
C	 -4.757412	 -0.737227	 -0.138149
H	 -3.900211	 1.137405	 0.459735
H	 -3.580878	 -0.166775	 1.564416
H	 -4.867876	 -0.486707	 -1.187777
H	 -4.549650	 -1.800049	 -0.072540
H	 -5.709585	 -0.556397	 0.346597

	symmetry c1
}
set optking {
	frozen_dihedral = ("
		16 12 15 17
	")
}

ee,wfn = optimize('scf', return_wfn=True)
oeprop( wfn, 'DIPOLE', 'QUADRUPOLE', 'MULLIKEN_CHARGES')
f=open( 'psi4out.xyz', 'w' )
f.write( "28  " )
f.write( str(ee) + "\n" )
f.write( MOL.save_string_xyz() )
f.close()
--------------------------------------------------------------------------

    Molecular point group: c1
  Charge       = 0
  Multiplicity = 1
  Basis Set: CC-PVTZ
  Basis Set:
  @DF-RHF Final Energy:  -426.31854424433504
    Total Energy =                       -426.3185442443347029
    Molecular point group: c1
  Basis Set: CC-PVTZ
  Basis Set:
  Basis Set: CC-PVTZ
  Basis Set:
  @DF-RHF Final Energy:  -426.31702787112158
    Total Energy =                       -426.3170278711213541
  Basis Set: CC-PVTZ
  Basis Set:
  Basis Set: CC-PVTZ
  Basis Set:
  @DF-RHF Final Energy:  -426.31907470168017
    Total Energy =                       -426.3190747016799378
  Basis Set: CC-PVTZ
  Basis Set:
  Basis Set: CC-PVTZ
  Basis Set:
  @DF-RHF Final Energy:  -426.31927499984567
    Total Energy =                       -426.3192749998452200
  Basis Set: CC-PVTZ
  Basis Set:
  Basis Set: CC-PVTZ
  Basis Set:
  @DF-RHF Final Energy:  -426.31928389517020
    Total Energy =                       -426.3192838951704289
  Basis Set: CC-PVTZ
  Basis Set:
  Basis Set: CC-PVTZ
  Basis Set:
  @DF-RHF Final Energy:  -426.31930120130835
    Total Energy =                       -426.3193012013080079
  Basis Set: CC-PVTZ
  Basis Set:
  Basis Set: CC-PVTZ
  Basis Set:
  @DF-RHF Final Energy:  -426.31931335369666
    Total Energy =                       -426.3193133536963160
  Basis Set: CC-PVTZ
  Basis Set:
  Charge       = 0
  Multiplicity = 1
  Basis Set: CC-PVTZ
  Basis Set:

    Orbital Energies (a.u.)
    -----------------------

    Doubly Occupied:

       1A    -20.535769     2A    -11.317243     3A    -11.228999
       4A    -11.228735     5A    -11.227683     6A    -11.224032
       7A    -11.214662     8A    -11.214344     9A    -11.210095
      10A    -11.203519    11A     -1.396364    12A     -1.096739
      13A     -1.078475    14A     -1.023532    15A     -0.991645
      16A     -0.907847    17A     -0.875631    18A     -0.809835
      19A     -0.800607    20A     -0.723100    21A     -0.668616
      22A     -0.657518    23A     -0.631014    24A     -0.620297
      25A     -0.610628    26A     -0.588020    27A     -0.580781
      28A     -0.574907    29A     -0.542124    30A     -0.533437
      31A     -0.520373    32A     -0.512421    33A     -0.495569
      34A     -0.487285    35A     -0.480899    36A     -0.476022
      37A     -0.471091    38A     -0.465852    39A     -0.457343
      40A     -0.394321

  @DF-RHF Final Energy:  -426.31931350060120

   => Energetics <=

    Nuclear Repulsion Energy =            532.3464396846228510
    One-Electron Energy =               -1633.1767605497170734
    Two-Electron Energy =                 674.5110073644933664
    DFT Exchange-Correlation Energy =       0.0000000000000000
    Empirical Dispersion Energy =           0.0000000000000000
    PCM Polarization Energy =               0.0000000000000000
    EFP Energy =                            0.0000000000000000
    Total Energy =                       -426.3193135006007424
    Molecular point group: c1
  Basis Set: CC-PVTZ
  Basis Set:

  -Total Gradient:
     Atom            X                  Y                   Z
    ------   -----------------  -----------------  -----------------
       1        0.000000835913     0.000002312396    -0.000003151899
       2        0.000003273243     0.000011016215     0.000004535116
       3        0.000012130184    -0.000041448746    -0.000002588649
       4        0.000001214746    -0.000003717549    -0.000000646310
       5       -0.000004885307     0.000004530868     0.000004142477
       6        0.000005861602    -0.000002463989    -0.000015287100
       7       -0.000003349696     0.000003242425     0.000002226318
       8        0.000003775664     0.000003404943     0.000001097223
       9       -0.000002225905    -0.000003876224     0.000041719637
      10       -0.000004670270    -0.000008228195     0.000003735574
      11        0.000002630653     0.000002540630     0.000005165771
      12       -0.000730671373    -0.000116492752    -0.001547971607
      13       -0.000006749783     0.000009258660    -0.000006665882
      14        0.000013191597     0.000001274672    -0.000019380922
      15       -0.000116375677     0.001113529367    -0.000532652358
      16        0.000575317785    -0.000169297947     0.001342338283
      17        0.000242869222    -0.000803743965     0.000716896639
      18       -0.000006904017    -0.000002110070     0.000004663082
      19        0.000005269532    -0.000001060942    -0.000003898108
      20        0.000003519468    -0.000002240781     0.000013112822
      21       -0.000002395416    -0.000002964351     0.000001403688
      22       -0.000001135136     0.000007478629     0.000000315551
      23        0.000001837011    -0.000000811089    -0.000009352091
      24        0.000003373869    -0.000006091161    -0.000001375074
      25        0.000000303859     0.000000536799    -0.000002527886
      26       -0.000000184351    -0.000002204005     0.000003781423
      27       -0.000000192622     0.000005777040     0.000000834840
      28        0.000004335211     0.000001849124    -0.000000470559

  **** Optimization is complete! (in 8 steps) ****
    Final optimized geometry and variables:
    Molecular point group: c1

    Geometry (in Angstrom), charge = 0, multiplicity = 1:

    H            5.193081964361    -0.718511639709     0.987160505781
    C            4.574865854705    -0.796597413089     0.100268698337
    C            3.094954420498    -0.677162601191     0.447833423323
    H            4.877626695672    -0.011506538963    -0.583966757674
    H            4.792606575532    -1.749210232776    -0.371935700504
    C            2.191670333626    -0.795571870677    -0.777835691468
    H            2.917474533443     0.273348580529     0.936821561946
    H            2.830744570866    -1.452920442646     1.162880317848
    C            0.703580486234    -0.682575434802    -0.462679482650
    H            2.459121594252    -0.033887056321    -1.499839724805
    H            2.366167169789    -1.756532972980    -1.253197617590
    C            0.232205315703     0.716708277017    -0.110921281225
    H            0.115350568506    -0.998635763844    -1.320281573136
    H            0.426494778555    -1.355994828481     0.343664003775
    C           -1.140198226877     0.869989366260     0.520201979124
    O            0.917479779644     1.671069257825    -0.292304502322
    C           -2.260854365279     0.007495033577    -0.061686873354
    H           -1.394424816862     1.919969394910     0.465196178140
    H           -1.015406629321     0.629081937534     1.574647622167
    C           -3.607105490156     0.284050942636     0.602813751053
    H           -2.346578007296     0.194500261031    -1.129062135183
    H           -2.022158382362    -1.044845329752     0.048594035157
    C           -4.738197354439    -0.564645705805     0.032566690438
    H           -3.852701880762     1.335851026627     0.490458733979
    H           -3.522712338532     0.103142475260     1.670857457924
    H           -4.868843641461    -0.380772491206    -1.028524001662
    H           -4.537988554624    -1.623057078035     0.161864425881
    H           -5.678402731682    -0.344031658925     0.524084647755

  Mulliken Charges: (a.u.)
   Center  Symbol    Alpha    Beta     Spin     Total
       1     H     0.44871  0.44871  0.00000  0.10258
       2     C     3.15204  3.15204  0.00000 -0.30407
       3     C     3.08426  3.08426  0.00000 -0.16852
       4     H     0.45180  0.45180  0.00000  0.09640
       5     H     0.45706  0.45706  0.00000  0.08587
       6     C     3.08740  3.08740  0.00000 -0.17479
       7     H     0.44499  0.44499  0.00000  0.11003
       8     H     0.45897  0.45897  0.00000  0.08207
       9     C     3.13161  3.13161  0.00000 -0.26322
      10     H     0.44498  0.44498  0.00000  0.11005
      11     H     0.44785  0.44785  0.00000  0.10430
      12     C     2.86715  2.86715  0.00000  0.26570
      13     H     0.43230  0.43230  0.00000  0.13541
      14     H     0.44240  0.44240  0.00000  0.11519
      15     C     3.09049  3.09049  0.00000 -0.18098
      16     O     4.17839  4.17839  0.00000 -0.35679
      17     C     3.10210  3.10210  0.00000 -0.20421
      18     H     0.43693  0.43693  0.00000  0.12615
      19     H     0.44831  0.44831  0.00000  0.10338
      20     C     3.08713  3.08713  0.00000 -0.17426
      21     H     0.44786  0.44786  0.00000  0.10428
      22     H     0.44921  0.44921  0.00000  0.10159
      23     C     3.14913  3.14913  0.00000 -0.29826
      24     H     0.44993  0.44993  0.00000  0.10014
      25     H     0.45337  0.45337  0.00000  0.09326
      26     H     0.45393  0.45393  0.00000  0.09214
      27     H     0.45513  0.45513  0.00000  0.08975
      28     H     0.44660  0.44660  0.00000  0.10680

   Total alpha = 40.00000, Total beta = 40.00000, Total charge = -0.00000

*** Psi4 exiting successfully. Buy a developer a beer!
