                              Psi4 1.0.54 Driver

  ==> Input File <==

--------------------------------------------------------------------------
set {
	reference rhf
	basis cc-pvtz
}

set_num_threads( 4 )
memory 2 gb

molecule MOL {
0 1

H	 1.055267	 -1.249310	 -0.769574
O	 1.675515	 -0.612943	 -0.465627
C	 1.135873	 0.113391	 0.608264
C	 0.027642	 1.012027	 0.090274
H	 1.902972	 0.727968	 1.072615
H	 0.756163	 -0.561896	 1.370018
C	 -1.138737	 0.285728	 -0.581921
H	 0.464661	 1.708096	 -0.618252
H	 -0.340737	 1.603071	 0.925246
C	 -1.933983	 -0.631436	 0.343653
H	 -0.763151	 -0.285569	 -1.422081
H	 -1.808359	 1.035291	 -0.992333
H	 -2.789188	 -1.049673	 -0.174718
H	 -1.335629	 -1.461368	 0.700418
H	 -2.305435	 -0.092167	 1.209725

	symmetry c1
}
set optking {
	frozen_dihedral = ("
		1 2 3 4
	")
}

ee,wfn = optimize('scf', return_wfn=True)
oeprop( wfn, 'DIPOLE', 'QUADRUPOLE', 'MULLIKEN_CHARGES')
f=open( 'psi4out.xyz', 'w' )
f.write( "15  " )
f.write( str(ee) + "\n" )
f.write( MOL.save_string_xyz() )
f.close()
--------------------------------------------------------------------------

    Molecular point group: c1
  Charge       = 0
  Multiplicity = 1
  Basis Set: CC-PVTZ
  Basis Set:
  @DF-RHF Final Energy:  -232.23469833633862
    Total Energy =                       -232.2346983363388517
    Molecular point group: c1
  Basis Set: CC-PVTZ
  Basis Set:
  Basis Set: CC-PVTZ
  Basis Set:
  @DF-RHF Final Energy:  -232.17380118158769
    Total Energy =                       -232.1738011815875211
  Basis Set: CC-PVTZ
  Basis Set:
  Basis Set: CC-PVTZ
  Basis Set:
  @DF-RHF Final Energy:  -232.23231680533888
    Total Energy =                       -232.2323168053388258
  Basis Set: CC-PVTZ
  Basis Set:
  Basis Set: CC-PVTZ
  Basis Set:
  @DF-RHF Final Energy:  -232.23653493866959
    Total Energy =                       -232.2365349386696494
  Basis Set: CC-PVTZ
  Basis Set:
  Basis Set: CC-PVTZ
  Basis Set:
  @DF-RHF Final Energy:  -232.23664244749631
    Total Energy =                       -232.2366424474961946
  Basis Set: CC-PVTZ
  Basis Set:
  Basis Set: CC-PVTZ
  Basis Set:
  @DF-RHF Final Energy:  -232.23664481182081
    Total Energy =                       -232.2366448118207813
  Basis Set: CC-PVTZ
  Basis Set:
  Basis Set: CC-PVTZ
  Basis Set:
  @DF-RHF Final Energy:  -232.23666325596321
    Total Energy =                       -232.2366632559632649
  Basis Set: CC-PVTZ
  Basis Set:
  Charge       = 0
  Multiplicity = 1
  Basis Set: CC-PVTZ
  Basis Set:

    Orbital Energies (a.u.)
    -----------------------

    Doubly Occupied:

       1A    -20.545796     2A    -11.264784     3A    -11.220861
       4A    -11.214792     5A    -11.214048     6A     -1.363612
       7A     -1.072161     8A     -0.977025     9A     -0.880749
      10A     -0.787519    11A     -0.697298    12A     -0.645634
      13A     -0.617529    14A     -0.587140    15A     -0.573840
      16A     -0.546999    17A     -0.504555    18A     -0.493559
      19A     -0.477936    20A     -0.459827    21A     -0.429713

  @DF-RHF Final Energy:  -232.23666394391651

   => Energetics <=

    Nuclear Repulsion Energy =            191.5946485329461382
    One-Electron Energy =                -694.5118738885857965
    Two-Electron Energy =                 270.6805614117229197
    DFT Exchange-Correlation Energy =       0.0000000000000000
    Empirical Dispersion Energy =           0.0000000000000000
    PCM Polarization Energy =               0.0000000000000000
    EFP Energy =                            0.0000000000000000
    Total Energy =                       -232.2366639439167102
    Molecular point group: c1
  Basis Set: CC-PVTZ
  Basis Set:

  -Total Gradient:
     Atom            X                  Y                   Z
    ------   -----------------  -----------------  -----------------
       1       -0.000038632580     0.000053570728    -0.000126163603
       2        0.000035244386    -0.000092274734     0.000157982241
       3        0.000037262334     0.000094251321    -0.000047312573
       4       -0.000039319279    -0.000094344057     0.000008219374
       5       -0.000003088920     0.000004297700    -0.000004607222
       6       -0.000001431445    -0.000005746904     0.000012830034
       7        0.000004834964     0.000019281784     0.000004650634
       8       -0.000000533426    -0.000000530170    -0.000016750587
       9       -0.000009403147     0.000000248281    -0.000010715976
      10        0.000007046567    -0.000006147877     0.000013405559
      11        0.000006983964     0.000008175365     0.000002852407
      12       -0.000006279616     0.000021139372     0.000000064651
      13        0.000003704757     0.000000017311    -0.000006316404
      14        0.000004698825    -0.000003286869     0.000012815691
      15       -0.000001087384     0.000001348748    -0.000000954224

  **** Optimization is complete! (in 8 steps) ****
    Final optimized geometry and variables:
    Molecular point group: c1

    Geometry (in Angstrom), charge = 0, multiplicity = 1:

    H            1.496998665203    -1.184872608029    -0.088519126159
    O            1.887405199701    -0.365760560039     0.153396637681
    C            0.934499445246     0.468672434646     0.757424920123
    C           -0.119216787964     0.984103867469    -0.213811630763
    H            1.488003990792     1.307560219954     1.157019097688
    H            0.469796402228    -0.034958510934     1.600498277778
    C           -1.000940551415    -0.085200135183    -0.862715407990
    H            0.387900667175     1.541919883923    -0.994207823316
    H           -0.749405674859     1.691459137024     0.320417567758
    C           -1.886673654128    -0.860148374855     0.110546919683
    H           -0.381110744066    -0.778758841894    -1.424078664072
    H           -1.633003953083     0.400081988891    -1.599006820353
    H           -2.529654041967    -1.551054865469    -0.422129724693
    H           -1.306995919531    -1.439658233366     0.820232086968
    H           -2.522122846388    -0.188688445996     0.678490196165

  Mulliken Charges: (a.u.)
   Center  Symbol    Alpha    Beta     Spin     Total
       1     H     0.39257  0.39257  0.00000  0.21487
       2     O     4.20582  4.20582  0.00000 -0.41163
       3     C     2.98224  2.98224  0.00000  0.03553
       4     C     3.09385  3.09385  0.00000 -0.18770
       5     H     0.44668  0.44668  0.00000  0.10665
       6     H     0.46788  0.46788  0.00000  0.06424
       7     C     3.10469  3.10469  0.00000 -0.20938
       8     H     0.44685  0.44685  0.00000  0.10629
       9     H     0.45600  0.45600  0.00000  0.08799
      10     C     3.15118  3.15118  0.00000 -0.30237
      11     H     0.45373  0.45373  0.00000  0.09255
      12     H     0.44445  0.44445  0.00000  0.11110
      13     H     0.44499  0.44499  0.00000  0.11002
      14     H     0.45622  0.45622  0.00000  0.08755
      15     H     0.45286  0.45286  0.00000  0.09428

   Total alpha = 21.00000, Total beta = 21.00000, Total charge = -0.00000

*** Psi4 exiting successfully. Buy a developer a beer!
