  ==> Input File <==

--------------------------------------------------------------------------
set {
	reference rhf
	basis cc-pvtz
}

set_num_threads( 4 )
memory 2 gb

molecule MOL {
0 1

H	 -2.816458	 -0.841657	 -0.064679
N	 -1.878861	 -0.711874	 0.250184
C	 -1.341419	 0.551458	 -0.220231
H	 -1.333674	 -1.468530	 -0.105118
C	 0.082190	 0.731516	 0.254705
H	 -1.357065	 0.652078	 -1.304747
H	 -1.939897	 1.357530	 0.189797
O	 0.881195	 -0.248324	 -0.336237
H	 0.440901	 1.722476	 -0.020063
H	 0.119896	 0.643586	 1.338114
C	 1.686840	 -0.948126	 0.552826
H	 2.256941	 -1.670656	 -0.013144
H	 2.377965	 -0.285451	 1.069452
H	 1.094066	 -1.474628	 1.297122

	symmetry c1
}
set optking {
	frozen_dihedral = ("
		11 8 5 3
	")
}

ee = optimize('scf')
oeprop('DIPOLE', 'QUADRUPOLE', 'MULLIKEN_CHARGES')
f=open( 'psi4out.xyz', 'w' )
f.write( "14  " )
f.write( str(ee) + "\n" )
f.write( MOL.save_string_xyz() )
f.close()
--------------------------------------------------------------------------

    Molecular point group: c1
  Charge       = 0
  Multiplicity = 1
  Basis Set: CC-PVTZ
  Basis Set:
  @DF-RHF Final Energy:  -248.22258074625267
    Total Energy =                       -248.2225807462527882
    Molecular point group: c1
  Basis Set: CC-PVTZ
  Basis Set:
  Basis Set: CC-PVTZ
  Basis Set:
  @DF-RHF Final Energy:  -248.22296528511026
    Total Energy =                       -248.2229652851103765
  Basis Set: CC-PVTZ
  Basis Set:
  Basis Set: CC-PVTZ
  Basis Set:
  @DF-RHF Final Energy:  -248.22302971651203
    Total Energy =                       -248.2230297165120874
  Basis Set: CC-PVTZ
  Basis Set:
  Basis Set: CC-PVTZ
  Basis Set:
  @DF-RHF Final Energy:  -248.22303334733357
    Total Energy =                       -248.2230333473336827
  Basis Set: CC-PVTZ
  Basis Set:
  Charge       = 0
  Multiplicity = 1
  Basis Set: CC-PVTZ
  Basis Set:

    Orbital Energies (a.u.)
    -----------------------

    Doubly Occupied:

       1A    -20.546459     2A    -15.526830     3A    -11.262700
       4A    -11.261680     5A    -11.239901     6A     -1.378407
       7A     -1.177952     8A     -1.000207     9A     -0.907449
      10A     -0.814488    11A     -0.686882    12A     -0.670475
      13A     -0.644940    14A     -0.617037    15A     -0.602751
      16A     -0.540376    17A     -0.531425    18A     -0.502895
      19A     -0.471859    20A     -0.416200    21A     -0.384604

  @DF-RHF Final Energy:  -248.22303365092819

   => Energetics <=

    Nuclear Repulsion Energy =            195.9691271939401531
    One-Electron Energy =                -726.0132888207526776
    Two-Electron Energy =                 281.8211279758841101
    DFT Exchange-Correlation Energy =       0.0000000000000000
    Empirical Dispersion Energy =           0.0000000000000000
    PCM Polarization Energy =               0.0000000000000000
    EFP Energy =                            0.0000000000000000
    Total Energy =                       -248.2230336509284143
    Molecular point group: c1
  Basis Set: CC-PVTZ
  Basis Set:

  -Total Gradient:
     Atom            X                  Y                   Z
    ------   -----------------  -----------------  -----------------
       1       -0.000007458225     0.000005630994    -0.000006792377
       2       -0.000001765382     0.000025703827     0.000009144078
       3       -0.000248672519    -0.000899024939     0.001138696758
       4        0.000012441849     0.000006592012    -0.000004745660
       5       -0.000135352309     0.000682691162    -0.001490361128
       6       -0.000008040056    -0.000010777566     0.000016117121
       7       -0.000013380922     0.000006397482     0.000011543694
       8        0.001638376000     0.001321808020     0.000084267213
       9       -0.000012448929     0.000006082640    -0.000008202108
      10       -0.000009619824    -0.000014187279     0.000004599687
      11       -0.001226493477    -0.001131529195     0.000233327640
      12       -0.000004005865     0.000002239266     0.000006763763
      13        0.000010616693    -0.000001166035     0.000008169300
      14        0.000005802971    -0.000000460387    -0.000002527981

  **** Optimization is complete! (in 5 steps) ****
    Final optimized geometry and variables:
    Molecular point group: c1

    Geometry (in Angstrom), charge = 0, multiplicity = 1:

    H           -2.733362743438    -0.666986750085    -0.118529043031
    N           -1.770807832724    -0.570714970219     0.125092396808
    C           -1.245470104406     0.705907851665    -0.324652606652
    H           -1.276586411537    -1.316442814460    -0.317424055886
    C            0.181731850523     0.886082223461     0.146639859251
    H           -1.274214598981     0.824750757160    -1.407085485262
    H           -1.846985212842     1.500581231288     0.103713229753
    O            1.000105825526    -0.101189137725    -0.417855291313
    H            0.549639204330     1.865763649541    -0.144892659339
    H            0.204689764279     0.823988968317     1.229674037477
    C            1.817576917379    -0.796045896759     0.468576985913
    H            2.370450110124    -1.528544814681    -0.102418547699
    H            2.527312428496    -0.136192241336     0.962153558724
    H            1.235048713937    -1.308430212891     1.228699481794

  Mulliken Charges: (a.u.)
   Center  Symbol    Alpha    Beta     Spin     Total
       1     H     0.42963  0.42963  0.00000  0.14074
       2     N     3.69612  3.69612  0.00000 -0.39224
       3     C     3.02445  3.02445  0.00000 -0.04890
       4     H     0.42251  0.42251  0.00000  0.15499
       5     C     2.97099  2.97099  0.00000  0.05801
       6     H     0.46482  0.46482  0.00000  0.07036
       7     H     0.45818  0.45818  0.00000  0.08363
       8     O     4.18899  4.18899  0.00000 -0.37798
       9     H     0.45820  0.45820  0.00000  0.08359
      10     H     0.46806  0.46806  0.00000  0.06389
      11     C     3.03573  3.03573  0.00000 -0.07146
      12     H     0.44989  0.44989  0.00000  0.10022
      13     H     0.46655  0.46655  0.00000  0.06690
      14     H     0.46587  0.46587  0.00000  0.06826

   Total alpha = 21.00000, Total beta = 21.00000, Total charge =  0.00000
