  ==> Input File <==

--------------------------------------------------------------------------
set {
	reference rhf
	basis 6-31G*
}

set_num_threads( 4 )
memory 2 gb

molecule MOL {
0 1

H	 2.845955	 -0.323208	 0.022310
C	 1.900140	 0.071967	 -0.330070
C	 0.778463	 -0.508087	 0.517968
H	 1.782469	 -0.206877	 -1.370777
H	 1.922247	 1.149867	 -0.254252
N	 -0.540928	 0.005139	 0.058438
H	 0.716718	 -1.581298	 0.454712
H	 0.859711	 -0.198647	 1.550086
O	 -0.542869	 0.893971	 -0.734813
O	 -1.511958	 -0.514079	 0.518887

	symmetry c1
}
set optking {
	frozen_dihedral = ("
		9 6 3 2
	")
}

ee = optimize('scf')
oeprop('DIPOLE', 'QUADRUPOLE', 'MULLIKEN_CHARGES')
f=open( 'psi4out.xyz', 'w' )
f.write( "10  " )
f.write( str(ee) + "\n" )
f.write( MOL.save_string_xyz() )
f.close()
--------------------------------------------------------------------------

    Molecular point group: c1
  Charge       = 0
  Multiplicity = 1
  Basis Set: 6-31G*
  Basis Set:
  @DF-RHF Final Energy:  -282.69951466164002
    Total Energy =                       -282.6995146616399097
    Molecular point group: c1
  Basis Set: 6-31G*
  Basis Set:
  Basis Set: 6-31G*
  Basis Set:
  @DF-RHF Final Energy:  -282.69890510557298
    Total Energy =                       -282.6989051055729760
  Basis Set: 6-31G*
  Basis Set:
  Basis Set: 6-31G*
  Basis Set:
  @DF-RHF Final Energy:  -282.69553790663849
    Total Energy =                       -282.6955379066382648
  Basis Set: 6-31G*
  Basis Set:
  Basis Set: 6-31G*
  Basis Set:
  @DF-RHF Final Energy:  -282.70024609386337
    Total Energy =                       -282.7002460938634840
  Basis Set: 6-31G*
  Basis Set:
  Basis Set: 6-31G*
  Basis Set:
  @DF-RHF Final Energy:  -282.70033433969377
    Total Energy =                       -282.7003343396938817
  Basis Set: 6-31G*
  Basis Set:
  Basis Set: 6-31G*
  Basis Set:
  @DF-RHF Final Energy:  -282.70036903253515
    Total Energy =                       -282.7003690325351499
  Basis Set: 6-31G*
  Basis Set:
  Basis Set: 6-31G*
  Basis Set:
  @DF-RHF Final Energy:  -282.70037230050036
    Total Energy =                       -282.7003723005003053
  Basis Set: 6-31G*
  Basis Set:
  Charge       = 0
  Multiplicity = 1
  Basis Set: 6-31G*
  Basis Set:

    Orbital Energies (a.u.)
    -----------------------

    Doubly Occupied:

       1A    -20.605757     2A    -20.599412     3A    -15.850180
       4A    -11.305269     5A    -11.246297     6A     -1.633401
       7A     -1.418888     8A     -1.125591     9A     -0.967369
      10A     -0.833357    11A     -0.760039    12A     -0.750209
      13A     -0.727083    14A     -0.637777    15A     -0.594862
      16A     -0.564321    17A     -0.539450    18A     -0.487306
      19A     -0.478396    20A     -0.450305

  @DF-RHF Final Energy:  -282.70037257356432

   => Energetics <=

    Nuclear Repulsion Energy =            186.0882656556132417
    One-Electron Energy =                -754.4267441886693177
    Two-Electron Energy =                 285.6381059594917247
    DFT Exchange-Correlation Energy =       0.0000000000000000
    Empirical Dispersion Energy =           0.0000000000000000
    PCM Polarization Energy =               0.0000000000000000
    EFP Energy =                            0.0000000000000000
    Total Energy =                       -282.7003725735643798
    Molecular point group: c1
  Basis Set: 6-31G*
  Basis Set:

  -Total Gradient:
     Atom            X                  Y                   Z
    ------   -----------------  -----------------  -----------------
       1       -0.000002337830    -0.000000758813     0.000002944987
       2       -0.000007284890     0.000018753855     0.000013335944
       3        0.000012558729    -0.000038746787    -0.000016218158
       4        0.000001909116    -0.000000555061    -0.000010788508
       5       -0.000002073519    -0.000004383260     0.000001875603
       6        0.000023696778     0.000038410329     0.000036208040
       7        0.000004751349     0.000004516005    -0.000001366043
       8       -0.000009101983    -0.000002848827     0.000000187395
       9       -0.000024607429    -0.000036196391    -0.000009128402
      10        0.000002489680     0.000021808949    -0.000017050859

  **** Optimization is complete! (in 8 steps) ****
    Final optimized geometry and variables:
    Molecular point group: c1

    Geometry (in Angstrom), charge = 0, multiplicity = 1:

    H            2.862434749872    -0.339013165667     0.044301904466
    C            1.934522348942     0.076072090511    -0.333953636355
    C            0.792843301872    -0.480651683411     0.491121857537
    H            1.836417874055    -0.196274875438    -1.376634505921
    H            1.983600886271     1.153687158548    -0.264647230815
    N           -0.547094864998     0.008368322992     0.052045448446
    H            0.720266660179    -1.556507693233     0.443228810266
    H            0.853821216738    -0.196228060482     1.532625259351
    O           -0.599892723147     0.893194298681    -0.742901306133
    O           -1.487553681537    -0.525515829283     0.555550893075

  Mulliken Charges: (a.u.)
   Center  Symbol    Alpha    Beta     Spin     Total
       1     H     0.40988  0.40988  0.00000  0.18024
       2     C     3.24978  3.24978  0.00000 -0.49955
       3     C     3.09546  3.09546  0.00000 -0.19093
       4     H     0.40140  0.40140  0.00000  0.19719
       5     H     0.39813  0.39813  0.00000  0.20373
       6     N     3.22044  3.22044  0.00000  0.55911
       7     H     0.38472  0.38472  0.00000  0.23057
       8     H     0.38416  0.38416  0.00000  0.23168
       9     O     4.22706  4.22706  0.00000 -0.45412
      10     O     4.22896  4.22896  0.00000 -0.45793

   Total alpha = 20.00000, Total beta = 20.00000, Total charge =  0.00000
