  ==> Input File <==

--------------------------------------------------------------------------
set {
	reference rhf
	basis cc-pvtz
}

set_num_threads( 4 )
memory 2 gb

molecule MOL {
0 1

O	 -2.071633	 -1.227563	 -0.223463
C	 -1.652164	 -0.152425	 0.058082
C	 -0.327811	 0.006324	 0.778296
C	 -2.402515	 1.108629	 -0.298924
C	 0.843231	 -0.001575	 -0.211665
H	 -0.319484	 0.928173	 1.350354
H	 -0.227804	 -0.823091	 1.466705
C	 2.197693	 0.138030	 0.476937
H	 0.722944	 0.805202	 -0.930230
H	 0.813976	 -0.926978	 -0.776588
C	 3.098987	 -1.073431	 0.264346
H	 2.698398	 1.029745	 0.109971
H	 2.042366	 0.290513	 1.540968
H	 3.301470	 -1.231254	 -0.789754
H	 2.637950	 -1.976054	 0.650461
H	 4.050071	 -0.946073	 0.767955
H	 -3.240910	 0.874416	 -0.936711
H	 -1.747554	 1.818823	 -0.790984
H	 -2.760419	 1.579708	 0.610998

	symmetry c1
}
set optking {
	frozen_dihedral = ("
		11 8 5 9
	")
}

ee = optimize('scf')
oeprop('DIPOLE', 'QUADRUPOLE', 'MULLIKEN_CHARGES')
f=open( 'psi4out.xyz', 'w' )
f.write( "19  " )
f.write( str(ee) + "\n" )
f.write( MOL.save_string_xyz() )
f.close()
--------------------------------------------------------------------------

    Molecular point group: c1
  Charge       = 0
  Multiplicity = 1
  Basis Set: CC-PVTZ
  Basis Set:
  @DF-RHF Final Energy:  -309.17132656921694
    Total Energy =                       -309.1713265692168306
    Molecular point group: c1
  Basis Set: CC-PVTZ
  Basis Set:
  Basis Set: CC-PVTZ
  Basis Set:
  @DF-RHF Final Energy:  -309.17155968640793
    Total Energy =                       -309.1715596864080453
  Basis Set: CC-PVTZ
  Basis Set:
  Basis Set: CC-PVTZ
  Basis Set:
  @DF-RHF Final Energy:  -309.17151826178525
    Total Energy =                       -309.1715182617852520
  Basis Set: CC-PVTZ
  Basis Set:
  Basis Set: CC-PVTZ
  Basis Set:
  @DF-RHF Final Energy:  -309.17160547277712
    Total Energy =                       -309.1716054727772303
  Basis Set: CC-PVTZ
  Basis Set:
  Basis Set: CC-PVTZ
  Basis Set:
  @DF-RHF Final Energy:  -309.17152525959477
    Total Energy =                       -309.1715252595949437
  Basis Set: CC-PVTZ
  Basis Set:
  Basis Set: CC-PVTZ
  Basis Set:
  @DF-RHF Final Energy:  -309.17164713686213
    Total Energy =                       -309.1716471368621342
  Basis Set: CC-PVTZ
  Basis Set:
  Charge       = 0
  Multiplicity = 1
  Basis Set: CC-PVTZ
  Basis Set:

    Orbital Energies (a.u.)
    -----------------------

    Doubly Occupied:

       1A    -20.537076     2A    -11.319319     3A    -11.228751
       4A    -11.228137     5A    -11.227024     6A    -11.222684
       7A    -11.212326     8A     -1.397100     9A     -1.090337
      10A     -1.029437    11A     -0.984001    12A     -0.891510
      13A     -0.806632    14A     -0.736302    15A     -0.656995
      16A     -0.653524    17A     -0.618100    18A     -0.613256
      19A     -0.592329    20A     -0.578121    21A     -0.545694
      22A     -0.533473    23A     -0.525313    24A     -0.498541
      25A     -0.481258    26A     -0.474909    27A     -0.465285
      28A     -0.398950

  @DF-RHF Final Energy:  -309.17164728234212

   => Energetics <=

    Nuclear Repulsion Energy =            302.5204998019251548
    One-Electron Energy =               -1018.2915254687445668
    Two-Electron Energy =                 406.5993783844771201
    DFT Exchange-Correlation Energy =       0.0000000000000000
    Empirical Dispersion Energy =           0.0000000000000000
    PCM Polarization Energy =               0.0000000000000000
    EFP Energy =                            0.0000000000000000
    Total Energy =                       -309.1716472823423487
    Molecular point group: c1
  Basis Set: CC-PVTZ
  Basis Set:

  -Total Gradient:
     Atom            X                  Y                   Z
    ------   -----------------  -----------------  -----------------
       1        0.000003180680    -0.000002521564     0.000003142999
       2        0.000001107929     0.000000122087    -0.000010164596
       3        0.000003695344    -0.000005671841    -0.000005550844
       4       -0.000003937857     0.000000605818     0.000012100585
       5       -0.000143794375     0.000276607989     0.000206693703
       6        0.000000072584     0.000002028903    -0.000001072128
       7       -0.000004062415    -0.000002043902     0.000001071388
       8       -0.000074688546    -0.000169339901     0.000209757898
       9        0.000127969603    -0.000187291898    -0.000229940813
      10       -0.000003589265     0.000000345361     0.000004159279
      11        0.000088233710     0.000086800659    -0.000188166564
      12       -0.000006905014     0.000001401420     0.000003098088
      13        0.000005008442     0.000003222740    -0.000000011531
      14        0.000004565618     0.000003539202     0.000001230727
      15        0.000001590888    -0.000009031067    -0.000005335218
      16       -0.000005281299    -0.000000205629     0.000003039808
      17        0.000003922772    -0.000002646047     0.000000684531
      18        0.000001911726     0.000000393309    -0.000002413222
      19        0.000000999473     0.000003684360    -0.000002324093

  **** Optimization is complete! (in 7 steps) ****
    Final optimized geometry and variables:
    Molecular point group: c1

    Geometry (in Angstrom), charge = 0, multiplicity = 1:

    O           -2.032499566264    -1.050963720426    -0.335232587327
    C           -1.617344723290     0.026878584784    -0.057308550662
    C           -0.293712728038     0.193098840802     0.662419289006
    C           -2.372806208396     1.283701924609    -0.418342875469
    C            0.879168038134     0.186898155491    -0.326969454336
    H           -0.288384937239     1.116726772022     1.231526774386
    H           -0.189311913758    -0.633871218063     1.353518695977
    C            2.252831201692     0.313138286810     0.364556873382
    H            0.751080525183     0.991461901719    -1.043555566936
    H            0.835586590936    -0.734061371515    -0.895955051781
    C            3.150521761606    -0.901707884341     0.148676670206
    H            2.764241429603     1.198567593154     0.003653320716
    H            2.113146413594     0.463979399868     1.429892974613
    H            3.356191062662    -1.051636072017    -0.905621620705
    H            2.681673489583    -1.805145987877     0.524044114332
    H            4.099599379029    -0.782872637546     0.658745666192
    H           -3.208485799046     1.044253633002    -1.057750541874
    H           -1.720257206112     1.996528726697    -0.909743580328
    H           -2.735506534353     1.754206798809     0.490001701062

  Mulliken Charges: (a.u.)
   Center  Symbol    Alpha    Beta     Spin     Total
       1     O     4.17689  4.17689  0.00000 -0.35378
       2     C     2.85889  2.85889  0.00000  0.28222
       3     C     3.09995  3.09995  0.00000 -0.19990
       4     C     3.15520  3.15520  0.00000 -0.31040
       5     C     3.10506  3.10506  0.00000 -0.21013
       6     H     0.44806  0.44806  0.00000  0.10387
       7     H     0.43883  0.43883  0.00000  0.12235
       8     C     3.08991  3.08991  0.00000 -0.17981
       9     H     0.44644  0.44644  0.00000  0.10711
      10     H     0.44148  0.44148  0.00000  0.11703
      11     C     3.14642  3.14642  0.00000 -0.29284
      12     H     0.44881  0.44881  0.00000  0.10238
      13     H     0.45352  0.45352  0.00000  0.09296
      14     H     0.45350  0.45350  0.00000  0.09300
      15     H     0.45245  0.45245  0.00000  0.09511
      16     H     0.44912  0.44912  0.00000  0.10176
      17     H     0.43615  0.43615  0.00000  0.12771
      18     H     0.45092  0.45092  0.00000  0.09817
      19     H     0.44841  0.44841  0.00000  0.10318

   Total alpha = 28.00000, Total beta = 28.00000, Total charge = -0.00000
