                              Psi4 1.0.54 Driver

  ==> Input File <==

--------------------------------------------------------------------------
set {
	reference rhf
	basis cc-pvtz
}

set_num_threads( 4 )
memory 2 gb

molecule MOL {
0 1

H	 1.412367	 0.887245	 -0.827863
C	 0.848385	 0.440008	 0.000011
C	 -0.623497	 0.751021	 0.000090
O	 1.401801	 -0.226942	 0.803847
C	 -1.523725	 -0.474323	 -0.000013
H	 -0.813143	 1.382932	 -0.864897
H	 -0.813071	 1.382716	 0.865253
H	 -1.342980	 -1.087348	 -0.873016
H	 -2.565269	 -0.177464	 0.000070
H	 -1.342898	 -1.087564	 0.872820

	symmetry c1
}
set optking {
	frozen_dihedral = ("
		4 2 3 6
	")
}

ee,wfn = optimize('scf', return_wfn=True)
oeprop( wfn, 'DIPOLE', 'QUADRUPOLE', 'MULLIKEN_CHARGES')
f=open( 'psi4out.xyz', 'w' )
f.write( "10  " )
f.write( str(ee) + "\n" )
f.write( MOL.save_string_xyz() )
f.close()
--------------------------------------------------------------------------

    Molecular point group: c1
  Charge       = 0
  Multiplicity = 1
  Basis Set: CC-PVTZ
  Basis Set:
  @DF-RHF Final Energy:  -192.02086794237786
    Total Energy =                       -192.0208679423780040
    Molecular point group: c1
  Basis Set: CC-PVTZ
  Basis Set:
  Basis Set: CC-PVTZ
  Basis Set:
  @DF-RHF Final Energy:  -192.02066605446663
    Total Energy =                       -192.0206660544666306
  Basis Set: CC-PVTZ
  Basis Set:
  Basis Set: CC-PVTZ
  Basis Set:
  @DF-RHF Final Energy:  -192.02078447571569
    Total Energy =                       -192.0207844757156010
  Basis Set: CC-PVTZ
  Basis Set:
  Basis Set: CC-PVTZ
  Basis Set:
  @DF-RHF Final Energy:  -192.02151461492025
    Total Energy =                       -192.0215146149201928
  Basis Set: CC-PVTZ
  Basis Set:
  Basis Set: CC-PVTZ
  Basis Set:
  @DF-RHF Final Energy:  -192.02152750980775
    Total Energy =                       -192.0215275098076972
  Basis Set: CC-PVTZ
  Basis Set:
  Basis Set: CC-PVTZ
  Basis Set:
  @DF-RHF Final Energy:  -192.02152912677650
    Total Energy =                       -192.0215291267764428
  Basis Set: CC-PVTZ
  Basis Set:
  Charge       = 0
  Multiplicity = 1
  Basis Set: CC-PVTZ
  Basis Set:

    Orbital Energies (a.u.)
    -----------------------

    Doubly Occupied:

       1A    -20.553476     2A    -11.323555     3A    -11.237839
       4A    -11.224627     5A     -1.409096     6A     -1.061200
       7A     -0.906909     8A     -0.782993     9A     -0.686250
      10A     -0.641759    11A     -0.613597    12A     -0.567340
      13A     -0.538207    14A     -0.513155    15A     -0.494650
      16A     -0.414568

  @DF-RHF Final Energy:  -192.02152922342250

   => Energetics <=

    Nuclear Repulsion Energy =            118.8483363217390831
    One-Electron Energy =                -495.8012877297372825
    Two-Electron Energy =                 184.9314221845758084
    DFT Exchange-Correlation Energy =       0.0000000000000000
    Empirical Dispersion Energy =           0.0000000000000000
    PCM Polarization Energy =               0.0000000000000000
    EFP Energy =                            0.0000000000000000
    Total Energy =                       -192.0215292234223625
    Molecular point group: c1
  Basis Set: CC-PVTZ
  Basis Set:

  -Total Gradient:
     Atom            X                  Y                   Z
    ------   -----------------  -----------------  -----------------
       1       -0.000002901992    -0.000004426672     0.000011478125
       2       -0.000041356147    -0.000744851355    -0.000710891060
       3       -0.000044489574    -0.000510779518    -0.000431610203
       4        0.000045071303     0.000621146311     0.000584484441
       5        0.000010780029     0.000007271632     0.000008516453
       6        0.000033524500     0.000625993123     0.000537952631
       7        0.000000893394     0.000002445755     0.000001237741
       8        0.000000363925     0.000002277142    -0.000000761883
       9       -0.000002990341     0.000001708503    -0.000000389705
      10        0.000001104905    -0.000000784921    -0.000000016541

  **** Optimization is complete! (in 7 steps) ****
    Final optimized geometry and variables:
    Molecular point group: c1

    Geometry (in Angstrom), charge = 0, multiplicity = 1:

    H            1.425913875679     1.016858147130    -0.783485562825
    C            0.805383726557     0.435331794728    -0.091798003273
    C           -0.690951105931     0.617831826531    -0.208395227164
    O            1.315976142660    -0.278108612872     0.700912403231
    C           -1.421501733697    -0.707232671261    -0.423792912061
    H           -0.909300753825     1.318960460374    -1.005303354386
    H           -1.023103683241     1.073301051790     0.719395362177
    H           -1.127053664666    -1.169215593187    -1.359156325385
    H           -2.491944611192    -0.547843824202    -0.452580029217
    H           -1.196959520044    -1.397215295198     0.377520398846

  Mulliken Charges: (a.u.)
   Center  Symbol    Alpha    Beta     Spin     Total
       1     H     0.45665  0.45665  0.00000  0.08670
       2     C     2.90977  2.90977  0.00000  0.18047
       3     C     3.08416  3.08416  0.00000 -0.16831
       4     O     4.16785  4.16785  0.00000 -0.33569
       5     C     3.14338  3.14338  0.00000 -0.28676
       6     H     0.44953  0.44953  0.00000  0.10095
       7     H     0.44486  0.44486  0.00000  0.11029
       8     H     0.45376  0.45376  0.00000  0.09248
       9     H     0.44835  0.44835  0.00000  0.10330
      10     H     0.44171  0.44171  0.00000  0.11659

   Total alpha = 16.00000, Total beta = 16.00000, Total charge =  0.00000

*** Psi4 exiting successfully. Buy a developer a beer!
