                              Psi4 1.0.54 Driver

  ==> Input File <==

--------------------------------------------------------------------------
set {
	reference rhf
	basis cc-pvtz
}

set_num_threads( 4 )
memory 2 gb

molecule MOL {
0 1

O	 0.749630	 1.305591	 -0.000460
C	 0.576499	 0.134701	 -0.003900
C	 -0.765656	 -0.550508	 -0.002152
O	 1.564816	 -0.744612	 -0.000631
C	 -1.945526	 0.411052	 0.000603
H	 -0.794329	 -1.203792	 -0.868145
H	 -0.791555	 -1.205429	 0.862701
C	 -1.572154	 1.779497	 -0.558750
H	 -2.319639	 0.514663	 1.011888
H	 -2.755752	 -0.015976	 -0.577809
H	 -0.782604	 2.242199	 0.024198
H	 -2.424992	 2.447326	 -0.547212
H	 -1.224577	 1.705572	 -1.583959
C	 2.884339	 -0.237801	 0.002883
H	 3.064150	 0.362814	 -0.876312
H	 3.533055	 -1.098529	 0.004958
H	 3.059365	 0.363432	 0.882614

	symmetry c1
}
set optking {
	frozen_dihedral = ("
		9 5 3 6
	")
}

ee,wfn = optimize('scf', return_wfn=True)
oeprop( wfn, 'DIPOLE', 'QUADRUPOLE', 'MULLIKEN_CHARGES')
f=open( 'psi4out.xyz', 'w' )
f.write( "17  " )
f.write( str(ee) + "\n" )
f.write( MOL.save_string_xyz() )
f.close()
--------------------------------------------------------------------------

    Molecular point group: c1
  Charge       = 0
  Multiplicity = 1
  Basis Set: CC-PVTZ
  Basis Set:
  @DF-RHF Final Energy:  -345.00480911520197
    Total Energy =                       -345.0048091152022494
    Molecular point group: c1
  Basis Set: CC-PVTZ
  Basis Set:
  Basis Set: CC-PVTZ
  Basis Set:
  @DF-RHF Final Energy:  -345.02091377184780
    Total Energy =                       -345.0209137718477450
  Basis Set: CC-PVTZ
  Basis Set:
  Basis Set: CC-PVTZ
  Basis Set:
  @DF-RHF Final Energy:  -345.02463156106251
    Total Energy =                       -345.0246315610625061
  Basis Set: CC-PVTZ
  Basis Set:
  Basis Set: CC-PVTZ
  Basis Set:
  @DF-RHF Final Energy:  -345.02064877670961
    Total Energy =                       -345.0206487767097201
  Basis Set: CC-PVTZ
  Basis Set:
  @DF-RHF Final Energy:  -345.02655376276959
    Total Energy =                       -345.0265537627696517
  @DF-RHF Final Energy:  -345.02704833576911
    Total Energy =                       -345.0270483357693365
  @DF-RHF Final Energy:  -345.02674211885648
    Total Energy =                       -345.0267421188561343
  @DF-RHF Final Energy:  -345.02779021751417
    Total Energy =                       -345.0277902175146778
  @DF-RHF Final Energy:  -345.02802455282534
    Total Energy =                       -345.0280245528255136
  @DF-RHF Final Energy:  -345.02827452288278
    Total Energy =                       -345.0282745228826116
  @DF-RHF Final Energy:  -345.02833472926380
    Total Energy =                       -345.0283347292639746
  @DF-RHF Final Energy:  -345.02835038876032
    Total Energy =                       -345.0283503887601455
  @DF-RHF Final Energy:  -345.02835666773308
    Total Energy =                       -345.0283566677329645
  Basis Set: CC-PVTZ
  Basis Set:
  @DF-RHF Final Energy:  -345.02836094889631
    Total Energy =                       -345.0283609488961929
  Basis Set: CC-PVTZ
  Basis Set:
  Basis Set: CC-PVTZ
  Basis Set:
  @DF-RHF Final Energy:  -345.02836387857030
    Total Energy =                       -345.0283638785705875
  Basis Set: CC-PVTZ
  Basis Set:
  Basis Set: CC-PVTZ
  Basis Set:
  @DF-RHF Final Energy:  -345.02836596003743
    Total Energy =                       -345.0283659600376041
  Basis Set: CC-PVTZ
  Basis Set:
  Charge       = 0
  Multiplicity = 1
  Basis Set: CC-PVTZ
  Basis Set:

    Orbital Energies (a.u.)
    -----------------------

    Doubly Occupied:

       1A    -20.599045     2A    -20.531382     3A    -11.365274
       4A    -11.278884     5A    -11.233388     6A    -11.226750
       7A    -11.208286     8A     -1.473180     9A     -1.365170
      10A     -1.078196    11A     -0.999845    12A     -0.942608
      13A     -0.833983    14A     -0.769806    15A     -0.696649
      16A     -0.683822    17A     -0.674166    18A     -0.629968
      19A     -0.611224    20A     -0.576515    21A     -0.557089
      22A     -0.536196    23A     -0.527218    24A     -0.499081
      25A     -0.484350    26A     -0.475966    27A     -0.459260
      28A     -0.436753

  @DF-RHF Final Energy:  -345.02836603903302

   => Energetics <=

    Nuclear Repulsion Energy =            320.1945153543856577
    One-Electron Energy =               -1104.9376600399903054
    Two-Electron Energy =                 439.7147786465718582
    DFT Exchange-Correlation Energy =       0.0000000000000000
    Empirical Dispersion Energy =           0.0000000000000000
    PCM Polarization Energy =               0.0000000000000000
    EFP Energy =                            0.0000000000000000
    Total Energy =                       -345.0283660390327896
    Molecular point group: c1
  Basis Set: CC-PVTZ
  Basis Set:

  -Total Gradient:
     Atom            X                  Y                   Z
    ------   -----------------  -----------------  -----------------
       1       -0.000006429307    -0.000029990361    -0.000035889903
       2       -0.000016418770     0.000029461063     0.000101314921
       3        0.003108404102     0.004133909662    -0.005097588960
       4        0.000030171374    -0.000006174275    -0.000033453430
       5        0.004188751330     0.005406461850     0.001554831827
       6       -0.003198648078    -0.004262036572     0.003923923942
       7       -0.000040611431    -0.000030227735    -0.000020019766
       8       -0.000039175508    -0.000012829030    -0.000008655796
       9       -0.003998328620    -0.005169563212    -0.000443028025
      10       -0.000002920535    -0.000037831433     0.000052539152
      11        0.000001031886    -0.000006701364    -0.000003634379
      12       -0.000002634064    -0.000000742895    -0.000001345627
      13       -0.000002499987    -0.000001129965    -0.000000452470
      14       -0.000016423074    -0.000015840712     0.000015574065
      15       -0.000007459674     0.000001947631    -0.000002518059
      16        0.000001578054     0.000002146230    -0.000001299152
      17        0.000001612298    -0.000000858881    -0.000000298339

  **** Optimization is complete! (in 17 steps) ****
    Final optimized geometry and variables:
    Molecular point group: c1

    Geometry (in Angstrom), charge = 0, multiplicity = 1:

    O            0.698397138502     0.613937061292     1.049576907384
    C            0.400630899909    -0.236317938709     0.279963211647
    C           -0.940128659832    -0.922195402231     0.252403018592
    O            1.232222099048    -0.710330346556    -0.630456015792
    C           -2.165454118638     0.013587536356     0.259290266430
    H           -0.994391602754    -1.630179471411    -0.561257919445
    H           -0.963837875424    -1.523311510946     1.156495147300
    C           -2.008012042783     1.330937353996    -0.491648063391
    H           -2.492875168170     0.180066502585     1.277659346732
    H           -2.975048289198    -0.546801076541    -0.197808308723
    H           -1.282447326159     1.976566562573    -0.017529145861
    H           -2.954754254238     1.856802627294    -0.525679444861
    H           -1.691675001126     1.160216279402    -1.516294049526
    C            2.538696366392    -0.170270010717    -0.656676371530
    H            2.507811505087     0.891210551738    -0.852023737155
    H            3.055412523026    -0.681083185821    -1.452829307049
    H            3.040108462500    -0.341087695309     0.284298758216

  Mulliken Charges: (a.u.)
   Center  Symbol    Alpha    Beta     Spin     Total
       1     O     4.20666  4.20666  0.00000 -0.41333
       2     C     2.79640  2.79640  0.00000  0.40720
       3     C     3.10195  3.10195  0.00000 -0.20390
       4     O     4.14614  4.14614  0.00000 -0.29228
       5     C     3.07992  3.07992  0.00000 -0.15983
       6     H     0.43667  0.43667  0.00000  0.12667
       7     H     0.44233  0.44233  0.00000  0.11534
       8     C     3.16094  3.16094  0.00000 -0.32188
       9     H     0.44753  0.44753  0.00000  0.10494
      10     H     0.45154  0.45154  0.00000  0.09692
      11     H     0.43997  0.43997  0.00000  0.12005
      12     H     0.44725  0.44725  0.00000  0.10551
      13     H     0.45452  0.45452  0.00000  0.09096
      14     C     3.03511  3.03511  0.00000 -0.07021
      15     H     0.45392  0.45392  0.00000  0.09216
      16     H     0.44510  0.44510  0.00000  0.10979
      17     H     0.45406  0.45406  0.00000  0.09188

   Total alpha = 28.00000, Total beta = 28.00000, Total charge =  0.00000

*** Psi4 exiting successfully. Buy a developer a beer!
