                              Psi4 1.0.54 Driver

  ==> Input File <==

--------------------------------------------------------------------------
set {
	reference rhf
	basis cc-pvtz
}

set_num_threads( 4 )
memory 2 gb

molecule MOL {
0 1

H	 1.135896	 3.923070	 2.264099
N	 0.314243	 3.361147	 2.195210
C	 0.446942	 2.365830	 1.142976
H	 -0.449161	 3.977368	 2.008571
C	 -0.773573	 1.458676	 1.096716
H	 1.327349	 1.770103	 1.359541
H	 0.602890	 2.807967	 0.158014
C	 -0.678115	 0.376691	 0.025731
H	 -0.904181	 1.005637	 2.074010
H	 -1.659507	 2.064981	 0.917833
C	 -1.900706	 -0.535531	 -0.022488
H	 0.209544	 -0.226522	 0.202225
H	 -0.540942	 0.840436	 -0.948433
C	 -3.220513	 0.226854	 0.028039
H	 -1.865036	 -1.134397	 -0.928236
H	 -1.857948	 -1.236381	 0.806820
H	 -3.309098	 0.911849	 -0.808725
H	 -4.066838	 -0.449485	 -0.008086
H	 -3.301685	 0.809374	 0.939860

	symmetry c1
}
set optking {
	frozen_dihedral = ("
		12 8 11 15
	")
}

ee,wfn = optimize('scf', return_wfn=True)
oeprop( wfn, 'DIPOLE', 'QUADRUPOLE', 'MULLIKEN_CHARGES')
f=open( 'psi4out.xyz', 'w' )
f.write( "19  " )
f.write( str(ee) + "\n" )
f.write( MOL.save_string_xyz() )
f.close()
--------------------------------------------------------------------------

    Molecular point group: c1
  Charge       = 0
  Multiplicity = 1
  Basis Set: CC-PVTZ
  Basis Set:
  @DF-RHF Final Energy:  -251.44346379414515
    Total Energy =                       -251.4434637941452593
    Molecular point group: c1
  Basis Set: CC-PVTZ
  Basis Set:
  Basis Set: CC-PVTZ
  Basis Set:
  @DF-RHF Final Energy:  -251.43991098709898
    Total Energy =                       -251.4399109870988696
  Basis Set: CC-PVTZ
  Basis Set:
  Basis Set: CC-PVTZ
  Basis Set:
  @DF-RHF Final Energy:  -251.44489267569023
    Total Energy =                       -251.4448926756904257
  Basis Set: CC-PVTZ
  Basis Set:
  Basis Set: CC-PVTZ
  Basis Set:
  @DF-RHF Final Energy:  -251.44515294509603
    Total Energy =                       -251.4451529450963108
  Basis Set: CC-PVTZ
  Basis Set:
  Basis Set: CC-PVTZ
  Basis Set:
  @DF-RHF Final Energy:  -251.44517116547203
    Total Energy =                       -251.4451711654718338
  Basis Set: CC-PVTZ
  Basis Set:
  Basis Set: CC-PVTZ
  Basis Set:
  @DF-RHF Final Energy:  -251.44517653504755
    Total Energy =                       -251.4451765350476080
  Basis Set: CC-PVTZ
  Basis Set:
  Charge       = 0
  Multiplicity = 1
  Basis Set: CC-PVTZ
  Basis Set:

    Orbital Energies (a.u.)
    -----------------------

    Doubly Occupied:

       1A    -15.526252     2A    -11.237728     3A    -11.212451
       4A    -11.210933     5A    -11.206959     6A    -11.204559
       7A     -1.178031     8A     -1.073295     9A     -0.995639
      10A     -0.904810    11A     -0.824822    12A     -0.773934
      13A     -0.666478    14A     -0.633293    15A     -0.619080
      16A     -0.604225    17A     -0.567984    18A     -0.546951
      19A     -0.521748    20A     -0.505190    21A     -0.487095
      22A     -0.458562    23A     -0.455517    24A     -0.451743
      25A     -0.383635

  @DF-RHF Final Energy:  -251.44517664190315

   => Energetics <=

    Nuclear Repulsion Energy =            249.7811499612315913
    One-Electron Energy =                -833.9508219372968369
    Two-Electron Energy =                 332.7244953341620430
    DFT Exchange-Correlation Energy =       0.0000000000000000
    Empirical Dispersion Energy =           0.0000000000000000
    PCM Polarization Energy =               0.0000000000000000
    EFP Energy =                            0.0000000000000000
    Total Energy =                       -251.4451766419032310
    Molecular point group: c1
  Basis Set: CC-PVTZ
  Basis Set:

  -Total Gradient:
     Atom            X                  Y                   Z
    ------   -----------------  -----------------  -----------------
       1       -0.000007601643     0.000000682872    -0.000004854269
       2       -0.000003030688     0.000013025101    -0.000017730598
       3        0.000002192319    -0.000013222982     0.000024634416
       4        0.000002507303     0.000005445427     0.000008196853
       5        0.000013135761    -0.000017947047     0.000014139031
       6       -0.000005957718    -0.000004571057    -0.000008667635
       7       -0.000002615632     0.000000455145     0.000005367435
       8        0.000776751196     0.000215438687    -0.005126531497
       9        0.000008385405     0.000008844116     0.000006169428
      10        0.000008783894    -0.000007354539    -0.000001108913
      11        0.002309652912    -0.003075159018     0.003461221149
      12       -0.001030877653     0.000302872074     0.003806434634
      13        0.000002696770    -0.000009868123    -0.000008049182
      14       -0.000005832118    -0.000001732984     0.000005143028
      15       -0.002076743323     0.002577424559    -0.002155332186
      16        0.000006456749     0.000004737849    -0.000001314404
      17       -0.000004116267    -0.000004950853     0.000005543397
      18        0.000005484309     0.000012840995     0.000002867782
      19        0.000000728422    -0.000006960224    -0.000016128470

  **** Optimization is complete! (in 7 steps) ****
    Final optimized geometry and variables:
    Molecular point group: c1

    Geometry (in Angstrom), charge = 0, multiplicity = 1:

    H            1.749309825985     2.718500283685     1.902922704010
    N            0.960562028264     2.149655147831     1.679378957887
    C            1.286361108821     1.188135236020     0.637855400121
    H            0.230347828892     2.762884172550     1.382624386237
    C            0.106831469403     0.267576887529     0.360348029997
    H            2.128350051517     0.597890168543     0.983375619920
    H            1.598258239490     1.661740286726    -0.294241162288
    C            0.409226454728    -0.763571857942    -0.726519802441
    H           -0.165603830898    -0.231912764913     1.285082013394
    H           -0.747288161604     0.874103031727     0.073654810931
    C           -0.681360788854    -1.819423924113    -0.936725688324
    H            1.323787166046    -1.276859814684    -0.441808417247
    H            0.606801099727    -0.252735934434    -1.664917142975
    C           -2.093776986628    -1.262045451220    -1.110071192325
    H           -0.440860525574    -2.378840428322    -1.835562279581
    H           -0.672451825650    -2.521946899383    -0.109246463595
    H           -2.130851778735    -0.530691563484    -1.911662888677
    H           -2.787418862963    -2.056960698617    -1.359300454744
    H           -2.456769076680    -0.783899041025    -0.208830802227

  Mulliken Charges: (a.u.)
   Center  Symbol    Alpha    Beta     Spin     Total
       1     H     0.43022  0.43022  0.00000  0.13955
       2     N     3.68884  3.68884  0.00000 -0.37767
       3     C     3.02803  3.02803  0.00000 -0.05605
       4     H     0.43100  0.43100  0.00000  0.13800
       5     C     3.08507  3.08507  0.00000 -0.17014
       6     H     0.45652  0.45652  0.00000  0.08696
       7     H     0.46885  0.46885  0.00000  0.06230
       8     C     3.10069  3.10069  0.00000 -0.20138
       9     H     0.44861  0.44861  0.00000  0.10277
      10     H     0.45743  0.45743  0.00000  0.08513
      11     C     3.08821  3.08821  0.00000 -0.17641
      12     H     0.45141  0.45141  0.00000  0.09718
      13     H     0.45386  0.45386  0.00000  0.09228
      14     C     3.15689  3.15689  0.00000 -0.31379
      15     H     0.45018  0.45018  0.00000  0.09965
      16     H     0.45228  0.45228  0.00000  0.09545
      17     H     0.45493  0.45493  0.00000  0.09013
      18     H     0.44574  0.44574  0.00000  0.10852
      19     H     0.45124  0.45124  0.00000  0.09751

   Total alpha = 25.00000, Total beta = 25.00000, Total charge = -0.00000

*** Psi4 exiting successfully. Buy a developer a beer!
