  ==> Input File <==

--------------------------------------------------------------------------
set {
	reference rhf
	basis 6-31G*
}

set_num_threads( 1 )
memory 2 gb

molecule MOL {
0 1

O	 1.806592	 1.365789	 0.272310
C	 1.583676	 0.325937	 0.803473
C	 0.262597	 -0.403671	 0.786500
O	 2.495222	 -0.346415	 1.494966
C	 -0.823008	 0.326187	 0.001381
H	 0.444204	 -1.394613	 0.379355
H	 -0.035754	 -0.559069	 1.819727
C	 -2.149452	 -0.435131	 -0.000098
H	 -0.484641	 0.479860	 -1.018462
H	 -0.965935	 1.315773	 0.423994
C	 -3.368779	 0.488503	 -0.000883
H	 -2.193746	 -1.087250	 -0.871175
H	 -2.195311	 -1.087803	 0.870418
C	 -4.693822	 -0.272754	 -0.001129
H	 -3.325798	 1.139422	 -0.871284
H	 -3.326423	 1.139959	 0.869145
H	 -4.781274	 -0.907928	 -0.878124
H	 -5.538651	 0.408946	 -0.001420
H	 -4.781694	 -0.907783	 0.875984
C	 3.785298	 0.229792	 1.587944
H	 4.221266	 0.345993	 0.606130
H	 4.372587	 -0.455293	 2.179236
H	 3.736560	 1.194926	 2.071314

	symmetry c1
}
set optking {
	frozen_dihedral = ("
		15 11 8 12,
		1 2 3 6,
		9 5 3 6,
		1 2 4 20
	")
}

ee = energy('scf')
oeprop('DIPOLE', 'QUADRUPOLE', 'MULLIKEN_CHARGES')
f=open( 'psi4out.xyz', 'w' )
f.write( "23  " )
f.write( str(ee) + "\n" )
f.write( MOL.save_string_xyz() )
f.close()
--------------------------------------------------------------------------

    Molecular point group: c1

    Geometry (in Angstrom), charge = 0, multiplicity = 1:

       Center              X                  Y                   Z               Mass
    ------------   -----------------  -----------------  -----------------  -----------------
           O          1.891185640545     1.219490356229    -0.288023432937    15.994914619560
           C          1.668269640545     0.179638356229     0.243139567063    12.000000000000
           C          0.347190640545    -0.549969643771     0.226166567063    12.000000000000
           O          2.579815640545    -0.492713643771     0.934632567063    15.994914619560
           C         -0.738414359455     0.179888356229    -0.558952432937    12.000000000000
           H          0.528797640545    -1.540911643771    -0.180978432937     1.007825032070
           H          0.048839640545    -0.705367643771     1.259393567063     1.007825032070
           C         -2.064858359455    -0.581429643771    -0.560431432937    12.000000000000
           H         -0.400047359455     0.333561356229    -1.578795432937     1.007825032070
           H         -0.881341359455     1.169474356229    -0.136339432937     1.007825032070
           C         -3.284185359455     0.342204356229    -0.561216432937    12.000000000000
           H         -2.109152359455    -1.233548643771    -1.431508432937     1.007825032070
           H         -2.110717359455    -1.234101643771     0.310084567063     1.007825032070
           C         -4.609228359455    -0.419052643771    -0.561462432937    12.000000000000
           H         -3.241204359455     0.993123356229    -1.431617432937     1.007825032070
           H         -3.241829359455     0.993660356229     0.308811567063     1.007825032070
           H         -4.696680359455    -1.054226643771    -1.438457432937     1.007825032070
           H         -5.454057359455     0.262647356229    -0.561753432937     1.007825032070
           H         -4.697100359455    -1.054081643771     0.315650567063     1.007825032070
           C          3.869891640545     0.083493356229     1.027610567063    12.000000000000
           H          4.305859640545     0.199694356229     0.045796567063     1.007825032070
           H          4.457180640545    -0.601591643771     1.618902567063     1.007825032070
           H          3.821153640545     1.048627356229     1.510980567063     1.007825032070

  Charge       = 0
  Multiplicity = 1
  Basis Set: 6-31G*
  Basis Set:

    Orbital Energies (a.u.)
    -----------------------

    Doubly Occupied:

       1A    -20.603490     2A    -20.545318     3A    -11.371922
       4A    -11.280736     5A    -11.235732     6A    -11.218261
       7A    -11.217175     8A    -11.216584     9A    -11.209456
      10A     -1.469195    11A     -1.362628    12A     -1.093347
      13A     -1.043436    14A     -0.986910    15A     -0.931983
      16A     -0.843830    17A     -0.795215    18A     -0.767409
      19A     -0.698265    20A     -0.683071    21A     -0.671836
      22A     -0.647065    23A     -0.612351    24A     -0.599100
      25A     -0.572494    26A     -0.559233    27A     -0.556544
      28A     -0.525914    29A     -0.521057    30A     -0.504611
      31A     -0.487539    32A     -0.470456    33A     -0.464417
      34A     -0.459648    35A     -0.454259    36A     -0.434945

  @DF-RHF Final Energy:  -422.97290394993587

   => Energetics <=

    Nuclear Repulsion Energy =            452.7943855737851777
    One-Electron Energy =               -1473.3041942412387471
    Two-Electron Energy =                 597.5369047175192918
    DFT Exchange-Correlation Energy =       0.0000000000000000
    Empirical Dispersion Energy =           0.0000000000000000
    PCM Polarization Energy =               0.0000000000000000
    EFP Energy =                            0.0000000000000000
    Total Energy =                       -422.9729039499343344

  Mulliken Charges: (a.u.)
   Center  Symbol    Alpha    Beta     Spin     Total
       1     O     4.28603  4.28603  0.00000 -0.57206
       2     C     2.60532  2.60532  0.00000  0.78937
       3     C     3.20999  3.20999  0.00000 -0.41998
       4     O     4.30740  4.30740  0.00000 -0.61480
       5     C     3.15376  3.15376  0.00000 -0.30753
       6     H     0.40029  0.40029  0.00000  0.19943
       7     H     0.40058  0.40058  0.00000  0.19883
       8     C     3.15474  3.15474  0.00000 -0.30949
       9     H     0.41000  0.41000  0.00000  0.18001
      10     H     0.41047  0.41047  0.00000  0.17906
      11     C     3.15314  3.15314  0.00000 -0.30628
      12     H     0.42069  0.42069  0.00000  0.15863
      13     H     0.42385  0.42385  0.00000  0.15230
      14     C     3.24001  3.24001  0.00000 -0.48002
      15     H     0.42052  0.42052  0.00000  0.15897
      16     H     0.42199  0.42199  0.00000  0.15601
      17     H     0.42156  0.42156  0.00000  0.15688
      18     H     0.41861  0.41861  0.00000  0.16277
      19     H     0.42196  0.42196  0.00000  0.15607
      20     C     3.09243  3.09243  0.00000 -0.18486
      21     H     0.40907  0.40907  0.00000  0.18186
      22     H     0.40847  0.40847  0.00000  0.18306
      23     H     0.40912  0.40912  0.00000  0.18176

   Total alpha = 36.00000, Total beta = 36.00000, Total charge = -0.00000
