  ==> Input File <==

--------------------------------------------------------------------------
set {
	reference rhf
	basis 6-31G*
}

set_num_threads( 1 )
memory 2 gb

molecule MOL {
0 1

H	 -3.135461	 -1.215070	 0.001379
O	 -2.310168	 -0.871793	 -0.309793
C	 -2.026376	 0.340750	 0.341611
C	 -0.673256	 0.843270	 -0.132153
H	 -2.792215	 1.080697	 0.115987
H	 -2.013526	 0.200402	 1.421792
C	 0.486613	 -0.083066	 0.235839
H	 -0.715586	 0.970948	 -1.210718
H	 -0.508072	 1.829858	 0.297090
C	 1.239314	 0.372624	 1.487079
H	 1.173820	 -0.142477	 -0.601855
H	 0.104017	 -1.090629	 0.394825
C	 2.394755	 -0.556301	 1.858197
H	 1.622689	 1.378537	 1.329345
H	 0.546741	 0.438251	 2.324026
H	 3.122557	 -0.615518	 1.054028
H	 2.911300	 -0.207396	 2.747237
H	 2.039756	 -1.563945	 2.056036

	symmetry c1
}
set optking {
	frozen_dihedral = ("
		14 10 7 11,
		2 3 4 8,
		1 2 3 4
	")
}

ee = energy('scf')
oeprop('DIPOLE', 'QUADRUPOLE', 'MULLIKEN_CHARGES')
f=open( 'psi4out.xyz', 'w' )
f.write( "18  " )
f.write( str(ee) + "\n" )
f.write( MOL.save_string_xyz() )
f.close()
--------------------------------------------------------------------------

    Molecular point group: c1

    Geometry (in Angstrom), charge = 0, multiplicity = 1:

       Center              X                  Y                   Z               Mass
    ------------   -----------------  -----------------  -----------------  -----------------
           H         -2.936526731400    -1.193898760009    -0.572344593649     1.007825032070
           O         -2.111233731400    -0.850621760009    -0.883516593649    15.994914619560
           C         -1.827441731400     0.361921239991    -0.232112593649    12.000000000000
           C         -0.474321731400     0.864441239991    -0.705876593649    12.000000000000
           H         -2.593280731400     1.101868239991    -0.457736593649     1.007825032070
           H         -1.814591731400     0.221573239991     0.848068406351     1.007825032070
           C          0.685547268600    -0.061894760009    -0.337884593649    12.000000000000
           H         -0.516651731400     0.992119239991    -1.784441593649     1.007825032070
           H         -0.309137731400     1.851029239991    -0.276633593649     1.007825032070
           C          1.438248268600     0.393795239991     0.913355406351    12.000000000000
           H          1.372754268600    -0.121305760009    -1.175578593649     1.007825032070
           H          0.302951268600    -1.069457760009    -0.178898593649     1.007825032070
           C          2.593689268600    -0.535129760009     1.284473406351    12.000000000000
           H          1.821623268600     1.399708239991     0.755621406351     1.007825032070
           H          0.745675268600     0.459422239991     1.750302406351     1.007825032070
           H          3.321491268600    -0.594346760009     0.480304406351     1.007825032070
           H          3.110234268600    -0.186224760009     2.173513406351     1.007825032070
           H          2.238690268600    -1.542773760009     1.482312406351     1.007825032070

  Charge       = 0
  Multiplicity = 1
  Basis Set: 6-31G*
  Basis Set:

    Orbital Energies (a.u.)
    -----------------------

    Doubly Occupied:

       1A    -20.553446     2A    -11.268149     3A    -11.211856
       4A    -11.210864     5A    -11.205086     6A    -11.205037
       7A     -1.360212     8A     -1.075742     9A     -1.007751
      10A     -0.913029    11A     -0.824524    12A     -0.778664
      13A     -0.702420    14A     -0.651434    15A     -0.618311
      16A     -0.581519    17A     -0.568241    18A     -0.557713
      19A     -0.527490    20A     -0.505262    21A     -0.484732
      22A     -0.468335    23A     -0.453309    24A     -0.449537
      25A     -0.428018

  @DF-RHF Final Energy:  -271.17591282028053

   => Energetics <=

    Nuclear Repulsion Energy =            251.1969788057728579
    One-Electron Energy =                -865.5244684787235201
    Two-Electron Energy =                 343.1515768526699048
    DFT Exchange-Correlation Energy =       0.0000000000000000
    Empirical Dispersion Energy =           0.0000000000000000
    PCM Polarization Energy =               0.0000000000000000
    EFP Energy =                            0.0000000000000000
    Total Energy =                       -271.1759128202807005

  Mulliken Charges: (a.u.)
   Center  Symbol    Alpha    Beta     Spin     Total
       1     H     0.28059  0.28059  0.00000  0.43881
       2     O     4.36914  4.36914  0.00000 -0.73829
       3     C     2.99916  2.99916  0.00000  0.00168
       4     C     3.16206  3.16206  0.00000 -0.32413
       5     H     0.42921  0.42921  0.00000  0.14158
       6     H     0.43279  0.43279  0.00000  0.13442
       7     C     3.15686  3.15686  0.00000 -0.31373
       8     H     0.41264  0.41264  0.00000  0.17471
       9     H     0.42241  0.42241  0.00000  0.15519
      10     C     3.15372  3.15372  0.00000 -0.30745
      11     H     0.42060  0.42060  0.00000  0.15879
      12     H     0.40815  0.40815  0.00000  0.18371
      13     C     3.23901  3.23901  0.00000 -0.47803
      14     H     0.42430  0.42430  0.00000  0.15141
      15     H     0.42560  0.42560  0.00000  0.14880
      16     H     0.42154  0.42154  0.00000  0.15692
      17     H     0.42073  0.42073  0.00000  0.15854
      18     H     0.42147  0.42147  0.00000  0.15706

   Total alpha = 25.00000, Total beta = 25.00000, Total charge =  0.00000
