  ==> Input File <==

--------------------------------------------------------------------------
set {
	reference rhf
	basis 6-31G*
}

set_num_threads( 1 )
memory 2 gb

molecule MOL {
0 1

H	 -2.646374	 -0.642757	 1.268656
C	 -2.083525	 -0.384536	 0.393091
O	 -0.807605	 -0.127164	 0.768327
F	 -2.118945	 -1.383102	 -0.486752
F	 -2.621877	 0.670592	 -0.209486
C	 0.084052	 0.273579	 -0.209957
C	 0.423835	 1.732057	 0.068520
Cl	 -0.626222	 0.095463	 -1.822718
H	 0.996683	 -0.296069	 -0.190481
F	 1.283773	 2.181437	 -0.820695
F	 0.983656	 1.817526	 1.258786
F	 -0.638825	 2.499196	 0.053482

	symmetry c1
}
set optking {
	frozen_dihedral = ("
		10 7 6 9,
		6 3 2 4
	")
}

ee = energy('scf')
oeprop('DIPOLE', 'QUADRUPOLE', 'MULLIKEN_CHARGES')
f=open( 'psi4out.xyz', 'w' )
f.write( "12  " )
f.write( str(ee) + "\n" )
f.write( MOL.save_string_xyz() )
f.close()
--------------------------------------------------------------------------

    Molecular point group: c1

    Geometry (in Angstrom), charge = 0, multiplicity = 1:

       Center              X                  Y                   Z               Mass
    ------------   -----------------  -----------------  -----------------  -----------------
           H         -2.023922654778    -1.347917426670     1.547127934089     1.007825032070
           C         -1.461073654778    -1.089696426670     0.671562934089    12.000000000000
           O         -0.185153654778    -0.832324426670     1.046798934089    15.994914619560
           F         -1.496493654778    -2.088262426670    -0.208280065911    18.998403224000
           F         -1.999425654778    -0.034568426670     0.068985934089    18.998403224000
           C          0.706503345222    -0.431581426670     0.068514934089    12.000000000000
           C          1.046286345222     1.026896573330     0.346991934089    12.000000000000
          CL         -0.003770654778    -0.609697426670    -1.544246065911    34.968852682000
           H          1.619134345222    -1.001229426670     0.087990934089     1.007825032070
           F          1.906224345222     1.476276573330    -0.542223065911    18.998403224000
           F          1.606107345222     1.112365573330     1.537257934089    18.998403224000
           F         -0.016373654778     1.794035573330     0.331953934089    18.998403224000

  Charge       = 0
  Multiplicity = 1
  Basis Set: 6-31G*
  Basis Set:

    Orbital Energies (a.u.)
    -----------------------

    Doubly Occupied:

       1A   -104.832790     2A    -26.356602     3A    -26.356448
       4A    -26.354929     5A    -26.333397     6A    -26.331965
       7A    -20.646284     8A    -11.522613     9A    -11.483443
      10A    -11.397946    11A    -10.569430    12A     -8.038682
      13A     -8.035122    14A     -8.034910    15A     -1.758389
      16A     -1.709307    17A     -1.654635    18A     -1.653865
      19A     -1.628580    20A     -1.483890    21A     -1.176918
      22A     -1.052409    23A     -0.983499    24A     -0.913423
      25A     -0.850749    26A     -0.847344    27A     -0.841617
      28A     -0.827833    29A     -0.802055    30A     -0.770717
      31A     -0.731950    32A     -0.721338    33A     -0.705703
      34A     -0.690178    35A     -0.675558    36A     -0.670156
      37A     -0.657658    38A     -0.655520    39A     -0.645186
      40A     -0.630567    41A     -0.601467    42A     -0.553019
      43A     -0.534081    44A     -0.459914    45A     -0.459617

  @DF-RHF Final Energy: -1146.28409127710529

   => Energetics <=

    Nuclear Repulsion Energy =            769.2441837222257845
    One-Electron Energy =               -3121.7734851505447295
    Two-Electron Energy =                1206.2452101512133140
    DFT Exchange-Correlation Energy =       0.0000000000000000
    Empirical Dispersion Energy =           0.0000000000000000
    PCM Polarization Energy =               0.0000000000000000
    EFP Energy =                            0.0000000000000000
    Total Energy =                      -1146.2840912771055173

  Mulliken Charges: (a.u.)
   Center  Symbol    Alpha    Beta     Spin     Total
       1     H     0.39703  0.39703  0.00000  0.20594
       2     C     2.56604  2.56604  0.00000  0.86791
       3     O     4.30759  4.30759  0.00000 -0.61517
       4     F     4.68454  4.68454  0.00000 -0.36908
       5     F     4.68377  4.68377  0.00000 -0.36753
       6     C     3.04095  3.04095  0.00000 -0.08190
       7     C     2.43407  2.43407  0.00000  1.13186
       8    CL     8.49859  8.49859  0.00000  0.00282
       9     H     0.36743  0.36743  0.00000  0.26513
      10     F     4.67427  4.67427  0.00000 -0.34854
      11     F     4.67679  4.67679  0.00000 -0.35359
      12     F     4.66893  4.66893  0.00000 -0.33785

   Total alpha = 45.00000, Total beta = 45.00000, Total charge = -0.00000
