  ==> Input File <==

--------------------------------------------------------------------------
set {
	reference rhf
	basis cc-pvtz
}

set_num_threads( 4 )
memory 2 gb

molecule MOL {
0 1

H	 3.721907	 -0.933076	 -0.066039
O	 2.824271	 -1.154299	 0.131461
C	 2.076458	 -0.067370	 -0.038225
C	 0.626018	 -0.337582	 0.258241
O	 2.538288	 0.965419	 -0.381593
C	 -0.267326	 0.883135	 0.076490
H	 0.325620	 -1.161483	 -0.378003
H	 0.574537	 -0.713685	 1.275261
C	 -1.726822	 0.642622	 0.463839
H	 -0.210803	 1.217591	 -0.953497
H	 0.129920	 1.693110	 0.675679
C	 -2.480891	 -0.340606	 -0.429852
H	 -2.243098	 1.597649	 0.438609
H	 -1.776542	 0.301208	 1.495542
C	 -3.394225	 0.356583	 -1.432959
H	 -1.764040	 -0.958175	 -0.964425
H	 -3.075760	 -1.017039	 0.175562
H	 -3.914997	 -0.362016	 -2.055128
H	 -2.828925	 1.012342	 -2.086498
H	 -4.141600	 0.959511	 -0.927921

	symmetry c1
}
set optking {
	frozen_dihedral = ("
		16 12 9 6
	")
}

ee = optimize('scf')
oeprop('DIPOLE', 'QUADRUPOLE', 'MULLIKEN_CHARGES')
f=open( 'psi4out.xyz', 'w' )
f.write( "20  " )
f.write( str(ee) + "\n" )
f.write( MOL.save_string_xyz() )
f.close()
--------------------------------------------------------------------------

    Molecular point group: c1
  Charge       = 0
  Multiplicity = 1
  Basis Set: CC-PVTZ
  Basis Set:
  @DF-RHF Final Energy:  -384.08987184002569
    Total Energy =                       -384.0898718400268308
    Molecular point group: c1
  Basis Set: CC-PVTZ
  Basis Set:
  Basis Set: CC-PVTZ
  Basis Set:
  @DF-RHF Final Energy:  -384.09021033252611
    Total Energy =                       -384.0902103325265671
  Basis Set: CC-PVTZ
  Basis Set:
  Basis Set: CC-PVTZ
  Basis Set:
  @DF-RHF Final Energy:  -384.09047429781884
    Total Energy =                       -384.0904742978189006
  Basis Set: CC-PVTZ
  Basis Set:
  Basis Set: CC-PVTZ
  Basis Set:
  @DF-RHF Final Energy:  -384.09032410163087
    Total Energy =                       -384.0903241016317224
  Basis Set: CC-PVTZ
  Basis Set:
  Basis Set: CC-PVTZ
  Basis Set:
  @DF-RHF Final Energy:  -384.09049110748447
    Total Energy =                       -384.0904911074847519
  Basis Set: CC-PVTZ
  Basis Set:
  Basis Set: CC-PVTZ
  Basis Set:
  @DF-RHF Final Energy:  -384.09049958474128
    Total Energy =                       -384.0904995847414511
  Basis Set: CC-PVTZ
  Basis Set:
  Basis Set: CC-PVTZ
  Basis Set:
  @DF-RHF Final Energy:  -384.09050288636394
    Total Energy =                       -384.0905028863638222
  Basis Set: CC-PVTZ
  Basis Set:
  Charge       = 0
  Multiplicity = 1
  Basis Set: CC-PVTZ
  Basis Set:

    Orbital Energies (a.u.)
    -----------------------

    Doubly Occupied:

       1A    -20.603986     2A    -20.540615     3A    -11.373559
       4A    -11.238792     5A    -11.221509     6A    -11.218611
       7A    -11.218024     8A    -11.209911     9A     -1.477574
      10A     -1.369082    11A     -1.096876    12A     -1.040529
      13A     -0.960750    14A     -0.873038    15A     -0.817724
      16A     -0.775721    17A     -0.703778    18A     -0.693008
      19A     -0.669106    20A     -0.630294    21A     -0.613052
      22A     -0.590703    23A     -0.577750    24A     -0.566800
      25A     -0.523364    26A     -0.513991    27A     -0.508124
      28A     -0.484623    29A     -0.469614    30A     -0.461915
      31A     -0.458702    32A     -0.446326

  @DF-RHF Final Energy:  -384.09050334069565

   => Energetics <=

    Nuclear Repulsion Energy =            378.4275974183117910
    One-Electron Energy =               -1273.1412977210079589
    Two-Electron Energy =                 510.6231969620006907
    DFT Exchange-Correlation Energy =       0.0000000000000000
    Empirical Dispersion Energy =           0.0000000000000000
    PCM Polarization Energy =               0.0000000000000000
    EFP Energy =                            0.0000000000000000
    Total Energy =                       -384.0905033406955340
    Molecular point group: c1
  Basis Set: CC-PVTZ
  Basis Set:

  -Total Gradient:
     Atom            X                  Y                   Z
    ------   -----------------  -----------------  -----------------
       1        0.000000055751     0.000001227889     0.000001329851
       2       -0.000001561072    -0.000011289530    -0.000010249624
       3        0.000002963671     0.000016410941     0.000013824525
       4       -0.000006552886    -0.000010031201    -0.000029674015
       5       -0.000001123445    -0.000000463284     0.000004401816
       6        0.000563882998    -0.001492633555     0.001047888074
       7       -0.000000966429     0.000003567549     0.000012169947
       8        0.000005437270     0.000005722244     0.000011559869
       9       -0.000793150910     0.002553657395    -0.001917589996
      10       -0.000000383138     0.000001594821    -0.000004419859
      11        0.000002191803    -0.000004450383    -0.000002550994
      12        0.000221569837    -0.002893537475     0.002720210633
      13        0.000000350897     0.000000194007     0.000004033861
      14        0.000000540521     0.000000628251    -0.000001287094
      15       -0.000000551539    -0.000000627880    -0.000002535448
      16        0.000006575977     0.001829650490    -0.001845829497
      17        0.000001360559    -0.000000538412    -0.000000288028
      18       -0.000001415025     0.000000284077    -0.000000408025
      19       -0.000000171580    -0.000000259493    -0.000001006475
      20        0.000000946748     0.000000893548     0.000000420478

  **** Optimization is complete! (in 8 steps) ****
    Final optimized geometry and variables:
    Molecular point group: c1

    Geometry (in Angstrom), charge = 0, multiplicity = 1:

    H            3.656822068495    -1.027391304643     0.109766224233
    O            2.774213129734    -1.229668265063     0.381462792380
    C            2.003074095677    -0.177099194959     0.122943140101
    C            0.574587947182    -0.420160213903     0.528777176218
    O            2.430718406317     0.810015263265    -0.367725847029
    C           -0.343106799366     0.767377638737     0.268147966736
    H            0.246863550509    -1.312022390926     0.007163733154
    H            0.583104257776    -0.681537063753     1.582066360117
    C           -1.796420703165     0.501595293703     0.668595822756
    H           -0.288869775075     1.041691527687    -0.779567385432
    H            0.033472960807     1.620544669831     0.819406518791
    C           -2.559821525673    -0.446920949441    -0.276081567568
    H           -2.321509699538     1.449089077905     0.718803654659
    H           -1.808445697199     0.103286993776     1.679060216981
    C           -3.470546434084     0.295187693623    -1.252599610179
    H           -1.858110634571    -1.035709250028    -0.857425704991
    H           -3.153493990798    -1.149271860857     0.297648995837
    H           -3.960697406674    -0.391959929998    -1.932953891945
    H           -2.908222695823     1.005917941658    -1.849334643399
    H           -4.241188256422     0.846243295428    -0.724474452064

  Mulliken Charges: (a.u.)
   Center  Symbol    Alpha    Beta     Spin     Total
       1     H     0.38243  0.38243  0.00000  0.23515
       2     O     4.16045  4.16045  0.00000 -0.32091
       3     C     2.80328  2.80328  0.00000  0.39344
       4     C     3.11181  3.11181  0.00000 -0.22362
       5     O     4.19111  4.19111  0.00000 -0.38221
       6     C     3.09228  3.09228  0.00000 -0.18455
       7     H     0.43699  0.43699  0.00000  0.12602
       8     H     0.43727  0.43727  0.00000  0.12546
       9     C     3.10789  3.10789  0.00000 -0.21578
      10     H     0.44458  0.44458  0.00000  0.11084
      11     H     0.44063  0.44063  0.00000  0.11873
      12     C     3.09086  3.09086  0.00000 -0.18173
      13     H     0.44538  0.44538  0.00000  0.10924
      14     H     0.44841  0.44841  0.00000  0.10318
      15     C     3.14697  3.14697  0.00000 -0.29395
      16     H     0.45601  0.45601  0.00000  0.08797
      17     H     0.44702  0.44702  0.00000  0.10595
      18     H     0.44914  0.44914  0.00000  0.10172
      19     H     0.45354  0.45354  0.00000  0.09291
      20     H     0.45394  0.45394  0.00000  0.09213

   Total alpha = 32.00000, Total beta = 32.00000, Total charge = -0.00000
