  ==> Input File <==

--------------------------------------------------------------------------
set {
	reference rhf
	basis cc-pvtz
}

set_num_threads( 4 )
memory 2 gb

molecule MOL {
0 1

H	 1.728373	 1.962570	 -2.461089
O	 0.965586	 1.873596	 -1.920448
C	 1.278443	 1.149503	 -0.758628
C	 0.027642	 1.012027	 0.090274
H	 2.041879	 1.667902	 -0.184000
H	 1.674997	 0.171436	 -1.016681
C	 -1.138737	 0.285728	 -0.581921
H	 -0.294762	 2.008204	 0.375220
H	 0.301462	 0.495869	 1.007235
C	 -1.933983	 -0.631436	 0.343653
H	 -0.763151	 -0.285569	 -1.422081
H	 -1.808359	 1.035291	 -0.992333
H	 -2.789188	 -1.049673	 -0.174718
H	 -1.335629	 -1.461368	 0.700418
H	 -2.305435	 -0.092167	 1.209725

	symmetry c1
}
set optking {
	frozen_dihedral = ("
		8 4 7 11
	")
}

ee = optimize('scf')
oeprop('DIPOLE', 'QUADRUPOLE', 'MULLIKEN_CHARGES')
f=open( 'psi4out.xyz', 'w' )
f.write( "15  " )
f.write( str(ee) + "\n" )
f.write( MOL.save_string_xyz() )
f.close()
--------------------------------------------------------------------------

    Molecular point group: c1
  Charge       = 0
  Multiplicity = 1
  Basis Set: CC-PVTZ
  Basis Set:
  @DF-RHF Final Energy:  -232.23477600742700
    Total Energy =                       -232.2347760074273424
    Molecular point group: c1
  Basis Set: CC-PVTZ
  Basis Set:
  Basis Set: CC-PVTZ
  Basis Set:
  @DF-RHF Final Energy:  -232.23530459694288
    Total Energy =                       -232.2353045969429104
  Basis Set: CC-PVTZ
  Basis Set:
  Basis Set: CC-PVTZ
  Basis Set:
  @DF-RHF Final Energy:  -232.23534053303615
    Total Energy =                       -232.2353405330360374
  Basis Set: CC-PVTZ
  Basis Set:
  Basis Set: CC-PVTZ
  Basis Set:
  @DF-RHF Final Energy:  -232.23534157438169
    Total Energy =                       -232.2353415743815503
  Basis Set: CC-PVTZ
  Basis Set:
  Charge       = 0
  Multiplicity = 1
  Basis Set: CC-PVTZ
  Basis Set:

    Orbital Energies (a.u.)
    -----------------------

    Doubly Occupied:

       1A    -20.546216     2A    -11.265810     3A    -11.210444
       4A    -11.207766     5A    -11.204183     6A     -1.364234
       7A     -1.064550     8A     -0.975458     9A     -0.857785
      10A     -0.787422    11A     -0.706435    12A     -0.647462
      13A     -0.603491    14A     -0.589530    15A     -0.552171
      16A     -0.538424    17A     -0.506262    18A     -0.477014
      19A     -0.469328    20A     -0.453383    21A     -0.432984

  @DF-RHF Final Energy:  -232.23534194910897

   => Energetics <=

    Nuclear Repulsion Energy =            188.8543623438622774
    One-Electron Energy =                -689.2587065880046566
    Two-Electron Energy =                 268.1690022950332946
    DFT Exchange-Correlation Energy =       0.0000000000000000
    Empirical Dispersion Energy =           0.0000000000000000
    PCM Polarization Energy =               0.0000000000000000
    EFP Energy =                            0.0000000000000000
    Total Energy =                       -232.2353419491091131
    Molecular point group: c1
  Basis Set: CC-PVTZ
  Basis Set:

  -Total Gradient:
     Atom            X                  Y                   Z
    ------   -----------------  -----------------  -----------------
       1        0.000000087563     0.000001203366     0.000009135365
       2       -0.000023419136     0.000020452273    -0.000003692189
       3        0.000039603657    -0.000015773762    -0.000028648422
       4       -0.001585312874    -0.000899458812     0.003537731247
       5       -0.000004276201    -0.000008642664     0.000003079521
       6        0.000005433350    -0.000011504906     0.000020914723
       7        0.000890525194    -0.003319769656     0.001998844012
       8        0.001165080141     0.001297655138    -0.003274347973
       9       -0.000001789056     0.000004941743    -0.000017784999
      10       -0.000010850603    -0.000014539758    -0.000017007058
      11       -0.000482485754     0.002913518809    -0.002229897698
      12       -0.000004860701     0.000013494079     0.000004950726
      13        0.000011233160     0.000001672047     0.000007967785
      14        0.000000262848     0.000004226208    -0.000007807441
      15        0.000000768412     0.000012525893    -0.000003437597

  **** Optimization is complete! (in 5 steps) ****
    Final optimized geometry and variables:
    Molecular point group: c1

    Geometry (in Angstrom), charge = 0, multiplicity = 1:

    H            1.815437320423     1.221435020266    -1.860524113566
    O            1.072624277660     1.150148224203    -1.290364046841
    C            1.398884724780     0.379580421434    -0.163059077073
    C            0.162140043206     0.234701927610     0.702680183504
    H            2.191522650292     0.858720290635     0.406507989620
    H            1.756475932718    -0.603022206221    -0.464948962914
    C           -0.995849752443    -0.492156531804     0.000502354829
    H           -0.146686043830     1.234599498343     0.988191521814
    H            0.448510365118    -0.292284256950     1.607722967930
    C           -1.806471674071    -1.383113413338     0.934511665710
    H           -0.612442786198    -1.068654592043    -0.835100505195
    H           -1.652159623563     0.243375799838    -0.449995717046
    H           -2.635758028002    -1.847735024543     0.413380317192
    H           -1.193029361157    -2.174099346605     1.353796799905
    H           -2.215289437780    -0.811658863830     1.761755691941

  Mulliken Charges: (a.u.)
   Center  Symbol    Alpha    Beta     Spin     Total
       1     H     0.39593  0.39593  0.00000  0.20813
       2     O     4.19978  4.19978  0.00000 -0.39956
       3     C     2.97240  2.97240  0.00000  0.05520
       4     C     3.09038  3.09038  0.00000 -0.18075
       5     H     0.46609  0.46609  0.00000  0.06782
       6     H     0.47450  0.47450  0.00000  0.05100
       7     C     3.08123  3.08123  0.00000 -0.16246
       8     H     0.45096  0.45096  0.00000  0.09809
       9     H     0.45510  0.45510  0.00000  0.08981
      10     C     3.14889  3.14889  0.00000 -0.29777
      11     H     0.45418  0.45418  0.00000  0.09164
      12     H     0.44846  0.44846  0.00000  0.10308
      13     H     0.44943  0.44943  0.00000  0.10113
      14     H     0.45778  0.45778  0.00000  0.08444
      15     H     0.45490  0.45490  0.00000  0.09020

   Total alpha = 21.00000, Total beta = 21.00000, Total charge = -0.00000
