  ==> Input File <==

--------------------------------------------------------------------------
set {
	reference rhf
	basis cc-pvtz
}

set_num_threads( 4 )
memory 2 gb

molecule MOL {
0 1

H	 -2.816458	 -0.841657	 -0.064679
N	 -1.878861	 -0.711874	 0.250184
C	 -1.341419	 0.551458	 -0.220231
H	 -1.333674	 -1.468530	 -0.105118
C	 0.082190	 0.731516	 0.254705
H	 -1.357065	 0.652078	 -1.304747
H	 -1.939897	 1.357530	 0.189797
O	 0.881195	 -0.248324	 -0.336237
H	 0.440901	 1.722476	 -0.020063
H	 0.119896	 0.643586	 1.338114
C	 1.839458	 -0.796014	 0.506963
H	 2.394358	 -1.533364	 -0.054986
H	 2.531836	 -0.038153	 0.867454
H	 1.382667	 -1.281070	 1.366396

	symmetry c1
}
set optking {
	frozen_dihedral = ("
		11 8 5 3
	")
}

ee = optimize('scf')
oeprop('DIPOLE', 'QUADRUPOLE', 'MULLIKEN_CHARGES')
f=open( 'psi4out.xyz', 'w' )
f.write( "14  " )
f.write( str(ee) + "\n" )
f.write( MOL.save_string_xyz() )
f.close()
--------------------------------------------------------------------------

    Molecular point group: c1
  Charge       = 0
  Multiplicity = 1
  Basis Set: CC-PVTZ
  Basis Set:
  @DF-RHF Final Energy:  -248.22358756191113
    Total Energy =                       -248.2235875619113585
    Molecular point group: c1
  Basis Set: CC-PVTZ
  Basis Set:
  Basis Set: CC-PVTZ
  Basis Set:
  @DF-RHF Final Energy:  -248.22377802131490
    Total Energy =                       -248.2237780213146152
  Basis Set: CC-PVTZ
  Basis Set:
  Basis Set: CC-PVTZ
  Basis Set:
  @DF-RHF Final Energy:  -248.22382401995242
    Total Energy =                       -248.2238240199521897
  Basis Set: CC-PVTZ
  Basis Set:
  Basis Set: CC-PVTZ
  Basis Set:
  @DF-RHF Final Energy:  -248.22382548310480
    Total Energy =                       -248.2238254831048607
  Basis Set: CC-PVTZ
  Basis Set:
  Charge       = 0
  Multiplicity = 1
  Basis Set: CC-PVTZ
  Basis Set:

    Orbital Energies (a.u.)
    -----------------------

    Doubly Occupied:

       1A    -20.547625     2A    -15.525639     3A    -11.262986
       4A    -11.262419     5A    -11.239789     6A     -1.380009
       7A     -1.177315     8A     -1.000311     9A     -0.907315
      10A     -0.814941    11A     -0.686587    12A     -0.671466
      13A     -0.645919    14A     -0.616276    15A     -0.603675
      16A     -0.540830    17A     -0.531147    18A     -0.500740
      19A     -0.472831    20A     -0.417073    21A     -0.384553

  @DF-RHF Final Energy:  -248.22382565143792

   => Energetics <=

    Nuclear Repulsion Energy =            195.5960161160952850
    One-Electron Energy =                -725.2607909083177447
    Two-Electron Energy =                 281.4409491407843689
    DFT Exchange-Correlation Energy =       0.0000000000000000
    Empirical Dispersion Energy =           0.0000000000000000
    PCM Polarization Energy =               0.0000000000000000
    EFP Energy =                            0.0000000000000000
    Total Energy =                       -248.2238256514381192
    Molecular point group: c1
  Basis Set: CC-PVTZ
  Basis Set:

  -Total Gradient:
     Atom            X                  Y                   Z
    ------   -----------------  -----------------  -----------------
       1       -0.000013819597     0.000001502763    -0.000001900062
       2       -0.000001169482     0.000015731641     0.000009546527
       3       -0.000325676269    -0.001122569263     0.001427211966
       4        0.000011802060     0.000007945832     0.000000234059
       5       -0.000103923653     0.000844309015    -0.001709056941
       6       -0.000011047303    -0.000001839357     0.000012466258
       7       -0.000020549624     0.000000445420     0.000002521270
       8        0.001849569824     0.001748752166    -0.000364085203
       9       -0.000002636122     0.000000772334    -0.000003497353
      10       -0.000007696119    -0.000005639604     0.000009008870
      11       -0.001385044170    -0.001495856009     0.000608246632
      12        0.000003670181    -0.000001892008     0.000009616485
      13        0.000004711374     0.000003094460     0.000004255513
      14        0.000001808901     0.000005242612    -0.000004568022

  **** Optimization is complete! (in 5 steps) ****
    Final optimized geometry and variables:
    Molecular point group: c1

    Geometry (in Angstrom), charge = 0, multiplicity = 1:

    H           -2.754710062212    -0.709624645798    -0.119810251473
    N           -1.799755386304    -0.599563391181     0.146789819883
    C           -1.273404362836     0.671532712482    -0.315957890344
    H           -1.286386220167    -1.349671634397    -0.265330458161
    C            0.151832771134     0.854850645657     0.157909858418
    H           -1.298021067041     0.779198284573    -1.399743841888
    H           -1.875451747157     1.471167548721     0.102020191293
    O            0.964577837017    -0.131318195902    -0.413845650906
    H            0.518534271503     1.839277827031    -0.121812218725
    H            0.172050584804     0.779643452728     1.240682644657
    C            1.930590513326    -0.677691112067     0.424470278085
    H            2.473502197086    -1.421432863684    -0.141367070412
    H            2.635502852268     0.074883284793     0.770886152099
    H            1.480010973552    -1.154015603749     1.290712437064

  Mulliken Charges: (a.u.)
   Center  Symbol    Alpha    Beta     Spin     Total
       1     H     0.42970  0.42970  0.00000  0.14060
       2     N     3.69605  3.69605  0.00000 -0.39210
       3     C     3.02421  3.02421  0.00000 -0.04842
       4     H     0.42250  0.42250  0.00000  0.15499
       5     C     2.97028  2.97028  0.00000  0.05944
       6     H     0.46446  0.46446  0.00000  0.07108
       7     H     0.45812  0.45812  0.00000  0.08376
       8     O     4.18722  4.18722  0.00000 -0.37444
       9     H     0.46060  0.46060  0.00000  0.07879
      10     H     0.46866  0.46866  0.00000  0.06267
      11     C     3.03439  3.03439  0.00000 -0.06877
      12     H     0.44955  0.44955  0.00000  0.10089
      13     H     0.46763  0.46763  0.00000  0.06474
      14     H     0.46662  0.46662  0.00000  0.06676

   Total alpha = 21.00000, Total beta = 21.00000, Total charge =  0.00000
