                              Psi4 1.0.54 Driver

  ==> Input File <==

--------------------------------------------------------------------------
set {
	reference rhf
	basis cc-pvtz
}

set_num_threads( 4 )
memory 2 gb

molecule MOL {
0 1

O	 -0.292379	 0.718739	 -1.864751
C	 -0.786327	 0.938086	 -0.811658
C	 -1.655732	 2.124522	 -0.503509
O	 -0.637375	 0.157174	 0.243149
H	 -1.212489	 2.701529	 0.297938
H	 -1.760335	 2.734599	 -1.385837
H	 -2.627006	 1.786027	 -0.166437
C	 0.162530	 -1.009518	 0.097799
C	 1.587210	 -0.664190	 0.477086
H	 0.096803	 -1.356267	 -0.924704
H	 -0.233803	 -1.785900	 0.736810
C	 2.256770	 0.342732	 -0.454344
H	 2.154716	 -1.590834	 0.479041
H	 1.598751	 -0.289614	 1.496104
C	 3.698146	 0.643205	 -0.057145
H	 2.235038	 -0.042575	 -1.470299
H	 1.683491	 1.262594	 -0.461300
H	 4.150202	 1.356548	 -0.736242
H	 4.305463	 -0.255904	 -0.069842
H	 3.749130	 1.061068	 0.942759

	symmetry c1
}
set optking {
	frozen_dihedral = ("
		2 4 8 10
	")
}

ee,wfn = optimize('scf', return_wfn=True)
oeprop( wfn, 'DIPOLE', 'QUADRUPOLE', 'MULLIKEN_CHARGES')
f=open( 'psi4out.xyz', 'w' )
f.write( "20  " )
f.write( str(ee) + "\n" )
f.write( MOL.save_string_xyz() )
f.close()
--------------------------------------------------------------------------

    Molecular point group: c1
  Charge       = 0
  Multiplicity = 1
  Basis Set: CC-PVTZ
  Basis Set:
  @DF-RHF Final Energy:  -384.08026258753256
    Total Energy =                       -384.0802625875327294
    Molecular point group: c1
  Basis Set: CC-PVTZ
  Basis Set:
  Basis Set: CC-PVTZ
  Basis Set:
  @DF-RHF Final Energy:  -384.08325344041907
    Total Energy =                       -384.0832534404192984
  Basis Set: CC-PVTZ
  Basis Set:
  Basis Set: CC-PVTZ
  Basis Set:
  @DF-RHF Final Energy:  -384.08217701553502
    Total Energy =                       -384.0821770155350805
  Basis Set: CC-PVTZ
  Basis Set:
  Basis Set: CC-PVTZ
  Basis Set:
  @DF-RHF Final Energy:  -384.08428512439281
    Total Energy =                       -384.0842851243921814
  Basis Set: CC-PVTZ
  Basis Set:
  Basis Set: CC-PVTZ
  Basis Set:
  @DF-RHF Final Energy:  -384.08460738903545
    Total Energy =                       -384.0846073890355683
  Basis Set: CC-PVTZ
  Basis Set:
  Basis Set: CC-PVTZ
  Basis Set:
  @DF-RHF Final Energy:  -384.08464036921515
    Total Energy =                       -384.0846403692153217
  Basis Set: CC-PVTZ
  Basis Set:
  Basis Set: CC-PVTZ
  Basis Set:
  @DF-RHF Final Energy:  -384.08464568321273
    Total Energy =                       -384.0846456832122158
  Basis Set: CC-PVTZ
  Basis Set:
  Charge       = 0
  Multiplicity = 1
  Basis Set: CC-PVTZ
  Basis Set:

    Orbital Energies (a.u.)
    -----------------------

    Doubly Occupied:

       1A    -20.593373     2A    -20.531828     3A    -11.367577
       4A    -11.280181     5A    -11.231158     6A    -11.222121
       7A    -11.214148     8A    -11.208151     9A     -1.468656
      10A     -1.365246    11A     -1.082996    12A     -1.028956
      13A     -0.980616    14A     -0.888226    15A     -0.808889
      16A     -0.766545    17A     -0.695941    18A     -0.684952
      19A     -0.665204    20A     -0.629047    21A     -0.602039
      22A     -0.594165    23A     -0.572212    24A     -0.549040
      25A     -0.548082    26A     -0.529918    27A     -0.505276
      28A     -0.498760    29A     -0.473282    30A     -0.467600
      31A     -0.445117    32A     -0.438705

  @DF-RHF Final Energy:  -384.08464649812498

   => Energetics <=

    Nuclear Repulsion Energy =            394.7507470101868989
    One-Electron Energy =               -1305.7947696496864864
    Two-Electron Energy =                 526.9593761413746051
    DFT Exchange-Correlation Energy =       0.0000000000000000
    Empirical Dispersion Energy =           0.0000000000000000
    PCM Polarization Energy =               0.0000000000000000
    EFP Energy =                            0.0000000000000000
    Total Energy =                       -384.0846464981250392
    Molecular point group: c1
  Basis Set: CC-PVTZ
  Basis Set:

  -Total Gradient:
     Atom            X                  Y                   Z
    ------   -----------------  -----------------  -----------------
       1        0.000041967515    -0.000027997367    -0.000037504996
       2        0.001731174529     0.001278257470     0.000490172264
       3        0.000011598843     0.000005385800    -0.000038511369
       4       -0.002966217578    -0.002228366377    -0.000419631190
       5        0.000000926236     0.000012052563     0.000026049070
       6       -0.000001550800    -0.000000323318     0.000005781731
       7       -0.000029292986    -0.000003638689     0.000004169061
       8        0.003052376806     0.002424307571    -0.000839027830
       9       -0.000005303215    -0.000014717950    -0.000026187636
      10       -0.001797107555    -0.001476632256     0.000807187271
      11       -0.000009754294     0.000003807853     0.000009664505
      12       -0.000028147225    -0.000008073144    -0.000004705612
      13        0.000018217729     0.000013123748     0.000014688722
      14       -0.000008175546     0.000008155012     0.000007016382
      15       -0.000014537268    -0.000011332349    -0.000020829716
      16       -0.000009624510     0.000019545265     0.000003830903
      17        0.000002987688     0.000011945920     0.000013138390
      18        0.000002180774    -0.000000773177    -0.000001698331
      19        0.000011447292    -0.000010086618     0.000007901489
      20       -0.000003166434     0.000005360044    -0.000001503110

  **** Optimization is complete! (in 8 steps) ****
    Final optimized geometry and variables:
    Molecular point group: c1

    Geometry (in Angstrom), charge = 0, multiplicity = 1:

    O           -1.076472758423     0.292412712928    -1.534288574704
    C           -1.455767984306     0.516120229732    -0.435792150647
    C           -2.348532310787     1.665672552565    -0.060827710345
    O           -1.157978878858    -0.221655307181     0.619376809829
    H           -1.850763252299     2.287557610578     0.672139186246
    H           -2.583680186856     2.243008506080    -0.940054421517
    H           -3.255993538799     1.287557647548     0.391865664466
    C           -0.290630483370    -1.342880110548     0.482339386409
    C            1.151092123258    -1.016046114213     0.828912923776
    H           -0.393483434653    -1.755108440011    -0.509413783304
    H           -0.671844857675    -2.065438149732     1.189668690948
    C            1.875600780129    -0.073718664207    -0.128339752402
    H            1.682164958165    -1.964212937702     0.866188318426
    H            1.178651264094    -0.609053284984     1.835678662183
    C            3.338046399321     0.124763749471     0.256838367616
    H            1.810908641535    -0.462640458622    -1.138378815689
    H            1.378502773083     0.889343125878    -0.144484698464
    H            3.833327161258     0.800961307002    -0.429958303499
    H            3.879476332967    -0.815522449716     0.242810350121
    H            3.428881881459     0.541888615273     1.254552783599

  Mulliken Charges: (a.u.)
   Center  Symbol    Alpha    Beta     Spin     Total
       1     O     4.19825  4.19825  0.00000 -0.39649
       2     C     2.80444  2.80444  0.00000  0.39112
       3     C     3.13793  3.13793  0.00000 -0.27586
       4     O     4.15971  4.15971  0.00000 -0.31942
       5     H     0.44710  0.44710  0.00000  0.10579
       6     H     0.43836  0.43836  0.00000  0.12327
       7     H     0.44471  0.44471  0.00000  0.11057
       8     C     2.99696  2.99696  0.00000  0.00609
       9     C     3.08951  3.08951  0.00000 -0.17902
      10     H     0.44518  0.44518  0.00000  0.10963
      11     H     0.44100  0.44100  0.00000  0.11801
      12     C     3.08724  3.08724  0.00000 -0.17447
      13     H     0.45334  0.45334  0.00000  0.09331
      14     H     0.45227  0.45227  0.00000  0.09547
      15     C     3.15010  3.15010  0.00000 -0.30021
      16     H     0.44425  0.44425  0.00000  0.11149
      17     H     0.45140  0.45140  0.00000  0.09719
      18     H     0.44654  0.44654  0.00000  0.10692
      19     H     0.45552  0.45552  0.00000  0.08895
      20     H     0.45617  0.45617  0.00000  0.08766

   Total alpha = 32.00000, Total beta = 32.00000, Total charge = -0.00000

*** Psi4 exiting successfully. Buy a developer a beer!
