                              Psi4 1.0.54 Driver

  ==> Input File <==

--------------------------------------------------------------------------
set {
	reference rhf
	basis cc-pvtz
}

set_num_threads( 4 )
memory 2 gb

molecule MOL {
0 1

H	 -1.119337	 -3.420556	 1.329422
O	 -1.263675	 -2.651671	 0.798667
C	 -0.160511	 -1.909171	 0.824322
C	 -0.310616	 -0.658853	 0.000791
O	 0.798934	 -2.229134	 1.436743
C	 0.926581	 0.227233	 0.000178
H	 -1.176568	 -0.127486	 0.382240
H	 -0.574519	 -0.969087	 -1.005105
C	 2.220156	 -0.582071	 -0.000088
H	 0.899945	 0.878221	 -0.866390
H	 0.900542	 0.878581	 0.866486
C	 3.466689	 0.296012	 -0.000457
H	 2.239073	 -1.234095	 -0.869382
H	 2.239505	 -1.233985	 0.869270
H	 3.493549	 0.935857	 -0.875887
H	 4.368821	 -0.304526	 -0.001199
H	 3.494559	 0.935166	 0.875458

	symmetry c1
}
set optking {
	frozen_dihedral = ("
		7 4 6 10
	")
}

ee,wfn = optimize('scf', return_wfn=True)
oeprop( wfn, 'DIPOLE', 'QUADRUPOLE', 'MULLIKEN_CHARGES')
f=open( 'psi4out.xyz', 'w' )
f.write( "17  " )
f.write( str(ee) + "\n" )
f.write( MOL.save_string_xyz() )
f.close()
--------------------------------------------------------------------------

    Molecular point group: c1
  Charge       = 0
  Multiplicity = 1
  Basis Set: CC-PVTZ
  Basis Set:
  @DF-RHF Final Energy:  -345.02962603479494
    Total Energy =                       -345.0296260347948873
    Molecular point group: c1
  Basis Set: CC-PVTZ
  Basis Set:
  Basis Set: CC-PVTZ
  Basis Set:
  @DF-RHF Final Energy:  -345.04038198217057
    Total Energy =                       -345.0403819821706861
  Basis Set: CC-PVTZ
  Basis Set:
  Basis Set: CC-PVTZ
  Basis Set:
  @DF-RHF Final Energy:  -345.04179702224405
    Total Energy =                       -345.0417970222438271
  Basis Set: CC-PVTZ
  Basis Set:
  Basis Set: CC-PVTZ
  Basis Set:
  @DF-RHF Final Energy:  -345.03907609898266
    Total Energy =                       -345.0390760989827754
  Basis Set: CC-PVTZ
  Basis Set:
  @DF-RHF Final Energy:  -345.04313047384034
    Total Energy =                       -345.0431304738402787
  @DF-RHF Final Energy:  -345.04366308886557
    Total Energy =                       -345.0436630888654008
  @DF-RHF Final Energy:  -345.04357510228476
    Total Energy =                       -345.0435751022846489
  @DF-RHF Final Energy:  -345.04426805003806
    Total Energy =                       -345.0442680500381130
  @DF-RHF Final Energy:  -345.04436179084200
    Total Energy =                       -345.0443617908422311
  @DF-RHF Final Energy:  -345.04438190853273
    Total Energy =                       -345.0443819085327846
  Basis Set: CC-PVTZ
  Basis Set:
  @DF-RHF Final Energy:  -345.04440790823401
    Total Energy =                       -345.0444079082337225
  Basis Set: CC-PVTZ
  Basis Set:
  Basis Set: CC-PVTZ
  Basis Set:
  @DF-RHF Final Energy:  -345.04441384124010
    Total Energy =                       -345.0444138412401571
  Basis Set: CC-PVTZ
  Basis Set:
  Basis Set: CC-PVTZ
  Basis Set:
  @DF-RHF Final Energy:  -345.04441539669193
    Total Energy =                       -345.0444153966915337
  Basis Set: CC-PVTZ
  Basis Set:
  Charge       = 0
  Multiplicity = 1
  Basis Set: CC-PVTZ
  Basis Set:

    Orbital Energies (a.u.)
    -----------------------

    Doubly Occupied:

       1A    -20.606165     2A    -20.537836     3A    -11.373800
       4A    -11.239663     5A    -11.226236     6A    -11.215605
       7A    -11.208745     8A     -1.478345     9A     -1.368457
      10A     -1.090839    11A     -1.016949    12A     -0.912879
      13A     -0.832941    14A     -0.786393    15A     -0.706438
      16A     -0.689191    17A     -0.656504    18A     -0.636024
      19A     -0.590399    20A     -0.585500    21A     -0.576675
      22A     -0.536287    23A     -0.520224    24A     -0.488645
      25A     -0.480625    26A     -0.472144    27A     -0.467730
      28A     -0.440265

  @DF-RHF Final Energy:  -345.04441550824714

   => Energetics <=

    Nuclear Repulsion Energy =            312.6379068166538104
    One-Electron Energy =               -1089.8816309927947259
    Two-Electron Energy =                 432.1993086678938880
    DFT Exchange-Correlation Energy =       0.0000000000000000
    Empirical Dispersion Energy =           0.0000000000000000
    PCM Polarization Energy =               0.0000000000000000
    EFP Energy =                            0.0000000000000000
    Total Energy =                       -345.0444155082469706
    Molecular point group: c1
  Basis Set: CC-PVTZ
  Basis Set:

  -Total Gradient:
     Atom            X                  Y                   Z
    ------   -----------------  -----------------  -----------------
       1       -0.000014098209    -0.000012996872    -0.000023530442
       2       -0.000014515654    -0.000079865447     0.000037038026
       3        0.000010590134     0.000086731940    -0.000128328042
       4       -0.000707836431     0.001256949650    -0.008100559817
       5        0.000054495932     0.000029233039     0.000076778034
       6       -0.003697435430     0.004893875977     0.005148825273
       7        0.001150309377    -0.001735127924     0.005996616043
       8        0.000001323043    -0.000034078090     0.000011454103
       9       -0.000072617737    -0.000010652144    -0.000001464209
      10        0.003260052278    -0.004363303341    -0.003089058587
      11        0.000038319462    -0.000019978981     0.000033085602
      12       -0.000002201537     0.000001544360    -0.000001373148
      13       -0.000007916885     0.000008464411    -0.000003115125
      14        0.000000838481    -0.000017483171     0.000050398243
      15       -0.000002368754     0.000007086878    -0.000001310237
      16        0.000003074902    -0.000004546432    -0.000008485220
      17       -0.000000012970    -0.000005853852     0.000003029501

  **** Optimization is complete! (in 14 steps) ****
    Final optimized geometry and variables:
    Molecular point group: c1

    Geometry (in Angstrom), charge = 0, multiplicity = 1:

    H           -1.504441994949    -2.564180799858     0.644847857692
    O           -1.523433555488    -1.903440700926    -0.031640946332
    C           -1.023998467823    -0.778765899892     0.468360216592
    C           -1.078012018094     0.369192619810    -0.508912618028
    O           -0.629743124544    -0.707364258314     1.582074710985
    C            0.157961261434     1.276586156691    -0.479745132430
    H           -1.945625269564     0.930233000190    -0.173390658062
    H           -1.274995145160    -0.012426424612    -1.499450208011
    C            1.494902900951     0.532378111229    -0.504519275126
    H            0.124022835380     1.886395376940    -1.376970021314
    H            0.119439130754     1.932454281603     0.380251183789
    C            2.682093346257     1.481938413409    -0.626670142489
    H            1.502636164342    -0.160753831885    -1.342764714093
    H            1.603244559020    -0.060845166256     0.394104877497
    H            2.627855816979     2.067853384263    -1.538343881390
    H            3.618144901760     0.936056411518    -0.639660177852
    H            2.714877776001     2.173087523767     0.208838979288

  Mulliken Charges: (a.u.)
   Center  Symbol    Alpha    Beta     Spin     Total
       1     H     0.38064  0.38064  0.00000  0.23872
       2     O     4.16121  4.16121  0.00000 -0.32243
       3     C     2.79594  2.79594  0.00000  0.40812
       4     C     3.11327  3.11327  0.00000 -0.22654
       5     O     4.20081  4.20081  0.00000 -0.40162
       6     C     3.08415  3.08415  0.00000 -0.16831
       7     H     0.43678  0.43678  0.00000  0.12644
       8     H     0.43375  0.43375  0.00000  0.13250
       9     C     3.09613  3.09613  0.00000 -0.19226
      10     H     0.44947  0.44947  0.00000  0.10106
      11     H     0.44569  0.44569  0.00000  0.10861
      12     C     3.15118  3.15118  0.00000 -0.30237
      13     H     0.45403  0.45403  0.00000  0.09194
      14     H     0.43995  0.43995  0.00000  0.12010
      15     H     0.45639  0.45639  0.00000  0.08721
      16     H     0.44730  0.44730  0.00000  0.10540
      17     H     0.45328  0.45328  0.00000  0.09343

   Total alpha = 28.00000, Total beta = 28.00000, Total charge = -0.00000

*** Psi4 exiting successfully. Buy a developer a beer!
