  ==> Input File <==

--------------------------------------------------------------------------
set {
	reference rhf
	basis 6-31G*
}

set_num_threads( 4 )
memory 2 gb

molecule MOL {
0 1

H	 0.010467	 -0.307955	 0.672324
N	 -0.626943	 -0.667432	 -0.000092
C	 -1.979713	 -0.158776	 0.000050
C	 -0.183566	 -1.606928	 -0.870109
H	 -2.520245	 -0.492427	 -0.879443
H	 -1.934741	 0.918111	 -0.004428
H	 -2.517790	 -0.485056	 0.883818
C	 1.270647	 -1.994427	 -0.690969
O	 -0.877516	 -2.098822	 -1.716684
H	 1.439504	 -2.398464	 0.302306
H	 1.526593	 -2.740571	 -1.428165
H	 1.915732	 -1.130330	 -0.815623

	symmetry c1
}
set optking {
	frozen_dihedral = ("
		4 2 3 5
	")
}

ee = optimize('scf')
oeprop('DIPOLE', 'QUADRUPOLE', 'MULLIKEN_CHARGES')
f=open( 'psi4out.xyz', 'w' )
f.write( "12  " )
f.write( str(ee) + "\n" )
f.write( MOL.save_string_xyz() )
f.close()
--------------------------------------------------------------------------

    Molecular point group: c1
  Charge       = 0
  Multiplicity = 1
  Basis Set: 6-31G*
  Basis Set:
  @DF-RHF Final Energy:  -247.00498577122175
    Total Energy =                       -247.0049857712219818
    Molecular point group: c1
  Basis Set: 6-31G*
  Basis Set:
  Basis Set: 6-31G*
  Basis Set:
  @DF-RHF Final Energy:  -247.00539670879763
    Total Energy =                       -247.0053967087976048
  Basis Set: 6-31G*
  Basis Set:
  Basis Set: 6-31G*
  Basis Set:
  @DF-RHF Final Energy:  -247.00544623325462
    Total Energy =                       -247.0054462332545313
  Basis Set: 6-31G*
  Basis Set:
  Basis Set: 6-31G*
  Basis Set:
  @DF-RHF Final Energy:  -247.00545608537234
    Total Energy =                       -247.0054560853723160
  Basis Set: 6-31G*
  Basis Set:
  Basis Set: 6-31G*
  Basis Set:
  @DF-RHF Final Energy:  -247.00548715195339
    Total Energy =                       -247.0054871519535027
  Basis Set: 6-31G*
  Basis Set:
  Basis Set: 6-31G*
  Basis Set:
  @DF-RHF Final Energy:  -247.00548934647006
    Total Energy =                       -247.0054893464701422
  Basis Set: 6-31G*
  Basis Set:
  Basis Set: 6-31G*
  Basis Set:
  @DF-RHF Final Energy:  -247.00549169207076
    Total Energy =                       -247.0054916920707910
  Basis Set: 6-31G*
  Basis Set:
  Charge       = 0
  Multiplicity = 1
  Basis Set: 6-31G*
  Basis Set:

    Orbital Energies (a.u.)
    -----------------------

    Doubly Occupied:

       1A    -20.515952     2A    -15.581248     3A    -11.343146
       4A    -11.253702     5A    -11.229692     6A     -1.384203
       7A     -1.228031     8A     -1.015701     9A     -0.931546
      10A     -0.786390    11A     -0.689180    12A     -0.648044
      13A     -0.632185    14A     -0.585871    15A     -0.579700
      16A     -0.554616    17A     -0.544066    18A     -0.507494
      19A     -0.412926    20A     -0.384191

  @DF-RHF Final Energy:  -247.00549220173392

   => Energetics <=

    Nuclear Repulsion Energy =            181.2715270104627905
    One-Electron Energy =                -694.9382701788446184
    Two-Electron Energy =                 266.6612509666477422
    DFT Exchange-Correlation Energy =       0.0000000000000000
    Empirical Dispersion Energy =           0.0000000000000000
    PCM Polarization Energy =               0.0000000000000000
    EFP Energy =                            0.0000000000000000
    Total Energy =                       -247.0054922017340573
    Molecular point group: c1
  Basis Set: 6-31G*
  Basis Set:

  -Total Gradient:
     Atom            X                  Y                   Z
    ------   -----------------  -----------------  -----------------
       1       -0.000020904822    -0.000019015378     0.000028273793
       2       -0.000031592611    -0.000108191552     0.000070487177
       3        0.000050055446     0.000165728162    -0.000066976967
       4        0.000029713614     0.000083145102    -0.000093081290
       5       -0.000021490787    -0.000091428550     0.000054389077
       6       -0.000000912431    -0.000011703473    -0.000008161409
       7       -0.000001603966    -0.000002517319     0.000000689871
       8       -0.000022623245    -0.000056459622     0.000046870988
       9        0.000006707076     0.000003880086    -0.000008212972
      10        0.000029328847     0.000019443523     0.000001187077
      11       -0.000001969931     0.000002020708     0.000000203971
      12       -0.000014707190     0.000015098315    -0.000025669312

  **** Optimization is complete! (in 8 steps) ****
    Final optimized geometry and variables:
    Molecular point group: c1

    Geometry (in Angstrom), charge = 0, multiplicity = 1:

    H            0.500387452802     0.977184507089     1.331116886831
    N           -0.129931554716     0.643845275271     0.638838242961
    C           -1.487486495586     1.139441300148     0.655458631101
    C            0.303107534964    -0.309895713248    -0.220963512813
    H           -1.996765547359     0.759605748468    -0.215308091209
    H           -1.496446482953     2.223258713937     0.626157909168
    H           -2.019165634274     0.810476949945     1.542762293406
    C            1.754272969954    -0.708280520249    -0.041139799732
    O           -0.396822173583    -0.802654306250    -1.062036523949
    H            1.913690759534    -1.132659795804     0.945324180291
    H            2.010255354592    -1.442634841522    -0.790043579905
    H            2.405584154320     0.153780882809    -0.144575964974

  Mulliken Charges: (a.u.)
   Center  Symbol    Alpha    Beta     Spin     Total
       1     H     0.31109  0.31109  0.00000  0.37783
       2     N     3.89147  3.89147  0.00000 -0.78294
       3     C     3.14205  3.14205  0.00000 -0.28410
       4     C     2.63070  2.63070  0.00000  0.73859
       5     H     0.38612  0.38612  0.00000  0.22776
       6     H     0.41664  0.41664  0.00000  0.16671
       7     H     0.41668  0.41668  0.00000  0.16664
       8     C     3.29525  3.29525  0.00000 -0.59050
       9     O     4.30238  4.30238  0.00000 -0.60476
      10     H     0.40779  0.40779  0.00000  0.18442
      11     H     0.39184  0.39184  0.00000  0.21631
      12     H     0.40798  0.40798  0.00000  0.18403

   Total alpha = 20.00000, Total beta = 20.00000, Total charge =  0.00000
