  ==> Input File <==

--------------------------------------------------------------------------
set {
	reference rhf
	basis cc-pvtz
}

set_num_threads( 4 )
memory 2 gb

molecule MOL {
0 1

H	 -1.146957	 0.318530	 0.746231
N	 -0.712187	 0.000026	 -0.093397
C	 0.734067	 -0.000020	 0.038424
H	 -1.003676	 0.611774	 -0.825684
H	 1.140372	 -0.872115	 -0.458226
H	 1.140363	 0.872301	 -0.457869
H	 1.095085	 -0.000244	 1.065614

	symmetry c1
}
set optking {
	frozen_dihedral = ("
		1 2 3 7
	")
}

ee = optimize('scf')
oeprop('DIPOLE', 'QUADRUPOLE', 'MULLIKEN_CHARGES')
f=open( 'psi4out.xyz', 'w' )
f.write( "7  " )
f.write( str(ee) + "\n" )
f.write( MOL.save_string_xyz() )
f.close()
--------------------------------------------------------------------------

    Molecular point group: c1
  Charge       = 0
  Multiplicity = 1
  Basis Set: CC-PVTZ
  Basis Set:
  @DF-RHF Final Energy:   -95.24996611882949
    Total Energy =                        -95.2499661188295192
    Molecular point group: c1
  Basis Set: CC-PVTZ
  Basis Set:
  Basis Set: CC-PVTZ
  Basis Set:
  @DF-RHF Final Energy:   -95.25110036443590
    Total Energy =                        -95.2511003644358993
  Basis Set: CC-PVTZ
  Basis Set:
  Basis Set: CC-PVTZ
  Basis Set:
  @DF-RHF Final Energy:   -95.25127658818167
    Total Energy =                        -95.2512765881816392
  Basis Set: CC-PVTZ
  Basis Set:
  Basis Set: CC-PVTZ
  Basis Set:
  @DF-RHF Final Energy:   -95.25128482305198
    Total Energy =                        -95.2512848230519751
  Basis Set: CC-PVTZ
  Basis Set:
  Charge       = 0
  Multiplicity = 1
  Basis Set: CC-PVTZ
  Basis Set:

    Orbital Energies (a.u.)
    -----------------------

    Doubly Occupied:

       1A    -15.525689     2A    -11.235480     3A     -1.169069
       4A     -0.897622     5A     -0.667451     6A     -0.600489
       7A     -0.561594     8A     -0.517626     9A     -0.381808

  @DF-RHF Final Energy:   -95.25128580243421

   => Energetics <=

    Nuclear Repulsion Energy =             42.3417416352444675
    One-Electron Energy =                -212.0724009282016311
    Two-Electron Energy =                  74.4793734905229314
    DFT Exchange-Correlation Energy =       0.0000000000000000
    Empirical Dispersion Energy =           0.0000000000000000
    PCM Polarization Energy =               0.0000000000000000
    EFP Energy =                            0.0000000000000000
    Total Energy =                        -95.2512858024342393
    Molecular point group: c1
  Basis Set: CC-PVTZ
  Basis Set:

  -Total Gradient:
     Atom            X                  Y                   Z
    ------   -----------------  -----------------  -----------------
       1       -0.000094596387    -0.002323304379     0.000811370884
       2       -0.000028179675     0.003532381370    -0.001031617729
       3        0.000114193709    -0.003494161718     0.000192234874
       4       -0.000000201955    -0.000009601664     0.000012054203
       5        0.000000513570     0.000041771884    -0.000000825745
       6       -0.000012124611    -0.000004534683     0.000004186614
       7        0.000020395350     0.002257449190     0.000012596899

  **** Optimization is complete! (in 5 steps) ****
    Final optimized geometry and variables:
    Molecular point group: c1

    Geometry (in Angstrom), charge = 0, multiplicity = 1:

    H           -1.142527138323     0.287300317782     0.791809407389
    N           -0.716624228093    -0.024182930758    -0.051576549949
    C            0.735583916656    -0.032004841367     0.041556939495
    H           -1.046065002436     0.541952791258    -0.800737910195
    H            1.147574148183    -0.912253527013    -0.437115229238
    H            1.197287467693     0.841107855377    -0.412087501690
    H            1.042286882684    -0.041025163730     1.079942525177

  Mulliken Charges: (a.u.)
   Center  Symbol    Alpha    Beta     Spin     Total
       1     H     0.42599  0.42599  0.00000  0.14802
       2     N     3.69078  3.69078  0.00000 -0.38156
       3     C     3.06826  3.06826  0.00000 -0.13652
       4     H     0.42674  0.42674  0.00000  0.14651
       5     H     0.46005  0.46005  0.00000  0.07991
       6     H     0.46830  0.46830  0.00000  0.06340
       7     H     0.45988  0.45988  0.00000  0.08024

   Total alpha =  9.00000, Total beta =  9.00000, Total charge =  0.00000
