                              Psi4 1.0.54 Driver

  ==> Input File <==

--------------------------------------------------------------------------
set {
	reference rhf
	basis cc-pvtz
}

set_num_threads( 4 )
memory 2 gb

molecule MOL {
0 1

H	 -1.990696	 -0.233950	 -2.755010
N	 -1.049633	 -0.344622	 -2.443203
C	 -0.969475	 -1.306863	 -1.359779
H	 -0.727779	 0.547433	 -2.132327
C	 0.459116	 -1.457954	 -0.889729
H	 -1.587648	 -1.045804	 -0.501727
H	 -1.309701	 -2.269719	 -1.724754
O	 0.881195	 -0.248324	 -0.336237
H	 0.521609	 -2.251450	 -0.146337
H	 1.093926	 -1.727835	 -1.730627
C	 2.208068	 -0.234417	 0.074171
H	 2.725499	 -1.027054	 -0.446768
H	 2.688377	 0.712084	 -0.164856
H	 2.295137	 -0.403407	 1.144883

	symmetry c1
}
set optking {
	frozen_dihedral = ("
		5 8 11 13
	")
}

ee,wfn = optimize('scf', return_wfn=True)
oeprop( wfn, 'DIPOLE', 'QUADRUPOLE', 'MULLIKEN_CHARGES')
f=open( 'psi4out.xyz', 'w' )
f.write( "14  " )
f.write( str(ee) + "\n" )
f.write( MOL.save_string_xyz() )
f.close()
--------------------------------------------------------------------------

    Molecular point group: c1
  Charge       = 0
  Multiplicity = 1
  Basis Set: CC-PVTZ
  Basis Set:
  @DF-RHF Final Energy:  -248.22255163542420
    Total Energy =                       -248.2225516354239971
    Molecular point group: c1
  Basis Set: CC-PVTZ
  Basis Set:
  Basis Set: CC-PVTZ
  Basis Set:
  @DF-RHF Final Energy:  -248.22328629008499
    Total Energy =                       -248.2232862900848431
  Basis Set: CC-PVTZ
  Basis Set:
  Basis Set: CC-PVTZ
  Basis Set:
  @DF-RHF Final Energy:  -248.22350615424330
    Total Energy =                       -248.2235061542431822
  Basis Set: CC-PVTZ
  Basis Set:
  Charge       = 0
  Multiplicity = 1
  Basis Set: CC-PVTZ
  Basis Set:

    Orbital Energies (a.u.)
    -----------------------

    Doubly Occupied:

       1A    -20.548201     2A    -15.523166     3A    -11.264358
       4A    -11.263294     5A    -11.239477     6A     -1.381080
       7A     -1.175623     8A     -1.000513     9A     -0.907843
      10A     -0.815516    11A     -0.684055    12A     -0.674469
      13A     -0.645600    14A     -0.611899    15A     -0.607703
      16A     -0.540689    17A     -0.534808    18A     -0.496900
      19A     -0.473419    20A     -0.416576    21A     -0.383564

  @DF-RHF Final Energy:  -248.22350752931538

   => Energetics <=

    Nuclear Repulsion Energy =            194.5034966747798535
    One-Electron Energy =                -723.0765059814623328
    Two-Electron Energy =                 280.3495017773672089
    DFT Exchange-Correlation Energy =       0.0000000000000000
    Empirical Dispersion Energy =           0.0000000000000000
    PCM Polarization Energy =               0.0000000000000000
    EFP Energy =                            0.0000000000000000
    Total Energy =                       -248.2235075293152704
    Molecular point group: c1
  Basis Set: CC-PVTZ
  Basis Set:

  -Total Gradient:
     Atom            X                  Y                   Z
    ------   -----------------  -----------------  -----------------
       1        0.000001705761    -0.000007636944     0.000006087931
       2        0.000005019266     0.000000944042     0.000004136816
       3       -0.000008615647     0.000025298674     0.000006442215
       4        0.000002282819    -0.000003678301     0.000001357823
       5        0.000571527586     0.000589807358    -0.001815685110
       6        0.000005773101     0.000002116609    -0.000004808398
       7       -0.000000354111    -0.000005956050    -0.000007098394
       8       -0.000537296355    -0.001067912735     0.002110983380
       9        0.000008344546     0.000029602183    -0.000000925119
      10        0.000021819098     0.000026020679     0.000007747433
      11       -0.000788215008     0.001307112829     0.001854656942
      12        0.000032415356    -0.000013119889    -0.000008723762
      13        0.000678738616    -0.000897658822    -0.002189911863
      14        0.000006854971     0.000015060368     0.000035740107

  **** Optimization is complete! (in 4 steps) ****
    Final optimized geometry and variables:
    Molecular point group: c1

    Geometry (in Angstrom), charge = 0, multiplicity = 1:

    H           -2.292351698773     0.481066124007    -1.772793811210
    N           -1.353316226476     0.362935810119    -1.457692983265
    C           -1.283123633735    -0.608373061387    -0.381783669899
    H           -1.028434738499     1.250597238469    -1.137682210342
    C            0.142397770990    -0.769695837111     0.094294540489
    H           -1.904745815990    -0.351626684397     0.475036826102
    H           -1.625295519632    -1.567055296484    -0.756092174013
    O            0.566201191215     0.438476324851     0.651845508945
    H            0.193927866651    -1.568211240202     0.833046503915
    H            0.778880701277    -1.038022431231    -0.744749417856
    C            1.891086836072     0.479266219154     1.080449597884
    H            2.492413201669    -0.282302883016     0.593059760220
    H            2.311004864337     1.442789582370     0.822831795728
    H            1.957607466451     0.332960373339     2.154133909991

  Mulliken Charges: (a.u.)
   Center  Symbol    Alpha    Beta     Spin     Total
       1     H     0.43032  0.43032  0.00000  0.13936
       2     N     3.69426  3.69426  0.00000 -0.38852
       3     C     3.02354  3.02354  0.00000 -0.04707
       4     H     0.42224  0.42224  0.00000  0.15552
       5     C     2.96847  2.96847  0.00000  0.06305
       6     H     0.46471  0.46471  0.00000  0.07058
       7     H     0.45872  0.45872  0.00000  0.08255
       8     O     4.18361  4.18361  0.00000 -0.36722
       9     H     0.47054  0.47054  0.00000  0.05892
      10     H     0.46765  0.46765  0.00000  0.06471
      11     C     3.02800  3.02800  0.00000 -0.05601
      12     H     0.47273  0.47273  0.00000  0.05454
      13     H     0.45284  0.45284  0.00000  0.09432
      14     H     0.46236  0.46236  0.00000  0.07528

   Total alpha = 21.00000, Total beta = 21.00000, Total charge = -0.00000

*** Psi4 exiting successfully. Buy a developer a beer!
