  ==> Input File <==

--------------------------------------------------------------------------
set {
	reference rhf
	basis 6-31G*
}

set_num_threads( 4 )
memory 2 gb

molecule MOL {
0 1

H	 -3.301617	 0.570527	 0.000000
C	 -2.250981	 0.344174	 0.000000
C	 -1.813665	 -0.976045	 0.000000
C	 -1.315303	 1.358057	 0.000000
H	 -2.528860	 -1.779366	 0.000000
C	 -0.467298	 -1.270142	 0.000000
H	 -1.635074	 2.385107	 0.000000
C	 0.047081	 1.078114	 0.000000
H	 -0.115948	 -2.285222	 0.000000
C	 0.472063	 -0.241155	 0.000000
H	 0.749976	 1.888426	 0.000000
O	 1.765256	 -0.628444	 0.000000
C	 2.654028	 -0.080172	 -0.929814
H	 2.352320	 -0.304158	 -1.947721
H	 3.613176	 -0.536759	 -0.736487
H	 2.741308	 0.994707	 -0.810018

	symmetry c1
}
set optking {
	frozen_dihedral = ("
		13 12 10 8
	")
}

ee = optimize('scf')
oeprop('DIPOLE', 'QUADRUPOLE', 'MULLIKEN_CHARGES')
f=open( 'psi4out.xyz', 'w' )
f.write( "16  " )
f.write( str(ee) + "\n" )
f.write( MOL.save_string_xyz() )
f.close()
--------------------------------------------------------------------------

    Molecular point group: c1
  Charge       = 0
  Multiplicity = 1
  Basis Set: 6-31G*
  Basis Set:
  @DF-RHF Final Energy:  -344.57956734732892
    Total Energy =                       -344.5795673473288616
    Molecular point group: c1
  Basis Set: 6-31G*
  Basis Set:
  Basis Set: 6-31G*
  Basis Set:
  @DF-RHF Final Energy:  -344.58020995561981
    Total Energy =                       -344.5802099556198073
  Basis Set: 6-31G*
  Basis Set:
  Basis Set: 6-31G*
  Basis Set:
  @DF-RHF Final Energy:  -344.58041663422478
    Total Energy =                       -344.5804166342248891
  Basis Set: 6-31G*
  Basis Set:
  Basis Set: 6-31G*
  Basis Set:
  @DF-RHF Final Energy:  -344.58045251642875
    Total Energy =                       -344.5804525164287497
  Basis Set: 6-31G*
  Basis Set:
  Basis Set: 6-31G*
  Basis Set:
  @DF-RHF Final Energy:  -344.58045411796343
    Total Energy =                       -344.5804541179634271
  Basis Set: 6-31G*
  Basis Set:
  Charge       = 0
  Multiplicity = 1
  Basis Set: 6-31G*
  Basis Set:

    Orbital Energies (a.u.)
    -----------------------

    Doubly Occupied:

       1A    -20.576252     2A    -11.289059     3A    -11.277173
       4A    -11.233503     5A    -11.232162     6A    -11.225627
       7A    -11.223363     8A    -11.221771     9A     -1.404536
      10A     -1.146847    11A     -1.018918    12A     -1.013914
      13A     -0.936640    14A     -0.832594    15A     -0.805648
      16A     -0.716483    17A     -0.665811    18A     -0.661594
      19A     -0.644557    20A     -0.614376    21A     -0.591575
      22A     -0.581523    23A     -0.528854    24A     -0.510841
      25A     -0.505262    26A     -0.481466    27A     -0.445628
      28A     -0.334822    29A     -0.313329

  @DF-RHF Final Energy:  -344.58045433876674

   => Energetics <=

    Nuclear Repulsion Energy =            347.8770090495451655
    One-Electron Energy =               -1156.8466716309533240
    Two-Electron Energy =                 464.3892082426415300
    DFT Exchange-Correlation Energy =       0.0000000000000000
    Empirical Dispersion Energy =           0.0000000000000000
    PCM Polarization Energy =               0.0000000000000000
    EFP Energy =                            0.0000000000000000
    Total Energy =                       -344.5804543387665717
    Molecular point group: c1
  Basis Set: 6-31G*
  Basis Set:

  -Total Gradient:
     Atom            X                  Y                   Z
    ------   -----------------  -----------------  -----------------
       1        0.000002089290    -0.000001250533    -0.000004339263
       2        0.000002170885     0.000046211623    -0.000010707502
       3        0.000022874564    -0.000024977301     0.000009113878
       4       -0.000042321345    -0.000028875357     0.000019927042
       5       -0.000007128041    -0.000000122717    -0.000001778558
       6       -0.000025468225    -0.000047537108    -0.000007165640
       7        0.000000654651     0.000004140462    -0.000000925932
       8        0.000028872204    -0.000016348385     0.000972140450
       9        0.000000706807     0.000013474544    -0.000002620394
      10       -0.000067535270    -0.000282643029    -0.001789931419
      11       -0.000003895419     0.000001059207    -0.000007289424
      12        0.000240094330     0.001014185145     0.001441807590
      13       -0.000178818708    -0.000688701312    -0.000611100448
      14        0.000018438145    -0.000001942379     0.000003792712
      15       -0.000001631081    -0.000000542610    -0.000010575920
      16        0.000010897206     0.000013869750    -0.000000347172

  **** Optimization is complete! (in 6 steps) ****
    Final optimized geometry and variables:
    Molecular point group: c1

    Geometry (in Angstrom), charge = 0, multiplicity = 1:

    H           -3.277442548585     0.638844683617     0.128228931856
    C           -2.228643596264     0.403233571748     0.126643527652
    C           -1.806539373040    -0.917367755045     0.160753039229
    C           -1.284656319082     1.415131610505     0.094426519161
    H           -2.529708028212    -1.713007195524     0.188406715438
    C           -0.457426389519    -1.223274502379     0.153518060135
    H           -1.598995757829     2.443588207300     0.075686186286
    C            0.070068550990     1.119811290527     0.095658782287
    H           -0.115021144016    -2.241152573359     0.178699910323
    C            0.483157240042    -0.204029164252     0.118571351989
    H            0.793418763385     1.913871535902     0.088617008117
    O            1.792787153433    -0.561733471022     0.161204750380
    C            2.666477677366     0.025917054511    -0.766673852332
    H            2.261847968755    -0.027962301734    -1.771731788807
    H            3.588170712170    -0.535753412962    -0.719441376364
    H            2.877351992258     1.061335987354    -0.523264565363

  Mulliken Charges: (a.u.)
   Center  Symbol    Alpha    Beta     Spin     Total
       1     H     0.40044  0.40044  0.00000  0.19913
       2     C     3.10843  3.10843  0.00000 -0.21686
       3     C     3.09478  3.09478  0.00000 -0.18957
       4     C     3.09434  3.09434  0.00000 -0.18868
       5     H     0.39848  0.39848  0.00000  0.20304
       6     C     3.12336  3.12336  0.00000 -0.24672
       7     H     0.39896  0.39896  0.00000  0.20207
       8     C     3.13031  3.13031  0.00000 -0.26063
       9     H     0.39311  0.39311  0.00000  0.21377
      10     C     2.79227  2.79227  0.00000  0.41545
      11     H     0.39693  0.39693  0.00000  0.20614
      12     O     4.33071  4.33071  0.00000 -0.66142
      13     C     3.08593  3.08593  0.00000 -0.17185
      14     H     0.42017  0.42017  0.00000  0.15965
      15     H     0.40834  0.40834  0.00000  0.18333
      16     H     0.42343  0.42343  0.00000  0.15315

   Total alpha = 29.00000, Total beta = 29.00000, Total charge =  0.00000
