                              Psi4 1.0.54 Driver

  ==> Input File <==

--------------------------------------------------------------------------
set {
	reference rhf
	basis cc-pvtz
}

set_num_threads( 4 )
memory 2 gb

molecule MOL {
0 1

H	 1.176158	 -0.230630	 -0.803905
C	 0.848385	 0.440008	 0.000011
C	 -0.623497	 0.751021	 0.000090
O	 1.631169	 0.858560	 0.780592
C	 -1.523725	 -0.474323	 -0.000013
H	 -0.813143	 1.382932	 -0.864897
H	 -0.813071	 1.382716	 0.865253
H	 -1.342980	 -1.087348	 -0.873016
H	 -2.565269	 -0.177464	 0.000070
H	 -1.342898	 -1.087564	 0.872820

	symmetry c1
}
set optking {
	frozen_dihedral = ("
		4 2 3 6
	")
}

ee,wfn = optimize('scf', return_wfn=True)
oeprop( wfn, 'DIPOLE', 'QUADRUPOLE', 'MULLIKEN_CHARGES')
f=open( 'psi4out.xyz', 'w' )
f.write( "10  " )
f.write( str(ee) + "\n" )
f.write( MOL.save_string_xyz() )
f.close()
--------------------------------------------------------------------------

    Molecular point group: c1
  Charge       = 0
  Multiplicity = 1
  Basis Set: CC-PVTZ
  Basis Set:
  @DF-RHF Final Energy:  -192.02275674846788
    Total Energy =                       -192.0227567484678275
    Molecular point group: c1
  Basis Set: CC-PVTZ
  Basis Set:
  Basis Set: CC-PVTZ
  Basis Set:
  @DF-RHF Final Energy:  -192.02308771418720
    Total Energy =                       -192.0230877141870565
  Basis Set: CC-PVTZ
  Basis Set:
  Basis Set: CC-PVTZ
  Basis Set:
  @DF-RHF Final Energy:  -192.02329861262922
    Total Energy =                       -192.0232986126293326
  Basis Set: CC-PVTZ
  Basis Set:
  Basis Set: CC-PVTZ
  Basis Set:
  @DF-RHF Final Energy:  -192.02331595642798
    Total Energy =                       -192.0233159564278083
  Basis Set: CC-PVTZ
  Basis Set:
  Charge       = 0
  Multiplicity = 1
  Basis Set: CC-PVTZ
  Basis Set:

    Orbital Energies (a.u.)
    -----------------------

    Doubly Occupied:

       1A    -20.553495     2A    -11.322830     3A    -11.238343
       4A    -11.232275     5A     -1.408468     6A     -1.068430
       7A     -0.905007     8A     -0.795259     9A     -0.675467
      10A     -0.644105    11A     -0.620361    12A     -0.567084
      13A     -0.545622    14A     -0.518001    15A     -0.498472
      16A     -0.415115

  @DF-RHF Final Energy:  -192.02331655003019

   => Energetics <=

    Nuclear Repulsion Energy =            117.5060164255466475
    One-Electron Energy =                -493.0419976676194551
    Two-Electron Energy =                 183.5126646920426197
    DFT Exchange-Correlation Energy =       0.0000000000000000
    Empirical Dispersion Energy =           0.0000000000000000
    PCM Polarization Energy =               0.0000000000000000
    EFP Energy =                            0.0000000000000000
    Total Energy =                       -192.0233165500301880
    Molecular point group: c1
  Basis Set: CC-PVTZ
  Basis Set:

  -Total Gradient:
     Atom            X                  Y                   Z
    ------   -----------------  -----------------  -----------------
       1       -0.000021214687    -0.000008379114     0.000011004932
       2       -0.000061924522    -0.000296278714     0.000223215616
       3       -0.000068879678    -0.000345276417    -0.000288107646
       4        0.000048077857     0.000264558897    -0.000144164111
       5        0.000057064905     0.000048549928    -0.000024269557
       6        0.000058758318     0.000235381046     0.000154264080
       7       -0.000016195063     0.000050928565     0.000063972612
       8        0.000006054246     0.000001068414     0.000022201947
       9       -0.000018147818     0.000031467572    -0.000000059817
      10        0.000016406447     0.000017979823    -0.000018058058

  **** Optimization is complete! (in 5 steps) ****
    Final optimized geometry and variables:
    Molecular point group: c1

    Geometry (in Angstrom), charge = 0, multiplicity = 1:

    H            1.054464696889    -0.662847626191    -0.987409213560
    C            0.753571924567     0.037786135552    -0.197020810244
    C           -0.710495413674     0.384044619745    -0.174984229522
    O            1.559909966084     0.466548136146     0.553209187755
    C           -1.598533224086    -0.859199214696    -0.200153541344
    H           -0.906660618380     0.990306805053    -1.056358209612
    H           -0.903607693417     0.995129550327     0.696287264791
    H           -1.393774677228    -1.473200141854    -1.070122832592
    H           -2.643136802041    -0.578526835131    -0.232680834457
    H           -1.443631457438    -1.467647920752     0.683046766934

  Mulliken Charges: (a.u.)
   Center  Symbol    Alpha    Beta     Spin     Total
       1     H     0.46680  0.46680  0.00000  0.06640
       2     C     2.89999  2.89999  0.00000  0.20003
       3     C     3.08084  3.08084  0.00000 -0.16167
       4     O     4.16343  4.16343  0.00000 -0.32686
       5     C     3.15132  3.15132  0.00000 -0.30265
       6     H     0.45026  0.45026  0.00000  0.09948
       7     H     0.44161  0.44161  0.00000  0.11677
       8     H     0.45356  0.45356  0.00000  0.09287
       9     H     0.44417  0.44417  0.00000  0.11166
      10     H     0.44802  0.44802  0.00000  0.10397

   Total alpha = 16.00000, Total beta = 16.00000, Total charge = -0.00000

*** Psi4 exiting successfully. Buy a developer a beer!
