  ==> Input File <==

--------------------------------------------------------------------------
set {
	reference rhf
	basis 6-31G*
}

set_num_threads( 4 )
memory 2 gb

molecule MOL {
0 1

O	 -2.848188	 1.255781	 0.337872
C	 -2.668563	 0.129746	 -0.000350
C	 -3.764171	 -0.788821	 -0.476948
O	 -1.481751	 -0.454642	 0.000584
H	 -4.244676	 -0.339794	 -1.337966
H	 -3.385941	 -1.766750	 -0.735858
H	 -4.508916	 -0.877047	 0.305005
C	 -0.334255	 0.388708	 0.000906
C	 0.891947	 -0.504646	 0.000751
H	 -0.365390	 1.025305	 -0.873475
H	 -0.365484	 1.024911	 0.875569
C	 2.191998	 0.301789	 0.000897
H	 0.855148	 -1.151283	 -0.871571
H	 0.855132	 -1.151660	 0.872805
C	 3.441114	 -0.581407	 0.000108
H	 2.215074	 0.954890	 -0.869742
H	 2.215465	 0.953923	 0.872248
C	 4.739576	 0.224112	 -0.001102
H	 3.419457	 -1.233487	 -0.870178
H	 3.420834	 -1.233096	 0.870717
H	 4.804918	 0.861552	 -0.878265
H	 5.606527	 -0.429058	 -0.001824
H	 4.806469	 0.861674	 0.875853

	symmetry c1
}
set optking {
	frozen_dihedral = ("
		1 2 4 8
	")
}

ee = optimize('scf')
oeprop('DIPOLE', 'QUADRUPOLE', 'MULLIKEN_CHARGES')
f=open( 'psi4out.xyz', 'w' )
f.write( "23  " )
f.write( str(ee) + "\n" )
f.write( MOL.save_string_xyz() )
f.close()
--------------------------------------------------------------------------

    Molecular point group: c1
  Charge       = 0
  Multiplicity = 1
  Basis Set: 6-31G*
  Basis Set:
  @DF-RHF Final Energy:  -422.97686097030515
    Total Energy =                       -422.9768609703054381
    Molecular point group: c1
  Basis Set: 6-31G*
  Basis Set:
  Basis Set: 6-31G*
  Basis Set:
  @DF-RHF Final Energy:  -422.97373057088294
    Total Energy =                       -422.9737305708829354
  Basis Set: 6-31G*
  Basis Set:
  Basis Set: 6-31G*
  Basis Set:
  @DF-RHF Final Energy:  -422.97712817631532
    Total Energy =                       -422.9771281763156594
  Basis Set: 6-31G*
  Basis Set:
  Basis Set: 6-31G*
  Basis Set:
  @DF-RHF Final Energy:  -422.97716995836316
    Total Energy =                       -422.9771699583628788
  Basis Set: 6-31G*
  Basis Set:
  @DF-RHF Final Energy:  -422.97717840494079
    Total Energy =                       -422.9771784049409007
  @DF-RHF Final Energy:  -422.97729125671464
    Total Energy =                       -422.9772912567143521
  @DF-RHF Final Energy:  -422.97747409540756
    Total Energy =                       -422.9774740954080698
  @DF-RHF Final Energy:  -422.97764031619801
    Total Energy =                       -422.9776403161980625
  @DF-RHF Final Energy:  -422.97784048849951
    Total Energy =                       -422.9778404884990550
  @DF-RHF Final Energy:  -422.97788756310422
    Total Energy =                       -422.9778875631042183
  @DF-RHF Final Energy:  -422.97799164921963
    Total Energy =                       -422.9779916492195753
  @DF-RHF Final Energy:  -422.97813393076410
    Total Energy =                       -422.9781339307642156
  @DF-RHF Final Energy:  -422.97813373077372
    Total Energy =                       -422.9781337307739477
  @DF-RHF Final Energy:  -422.97814850869048
    Total Energy =                       -422.9781485086903103
  @DF-RHF Final Energy:  -422.97814616360580
    Total Energy =                       -422.9781461636057429
  @DF-RHF Final Energy:  -422.97814179511715
    Total Energy =                       -422.9781417951163576
  @DF-RHF Final Energy:  -422.97815330888648
    Total Energy =                       -422.9781533088867036
  @DF-RHF Final Energy:  -422.97815716962646
    Total Energy =                       -422.9781571696262290
  @DF-RHF Final Energy:  -422.97816009603474
    Total Energy =                       -422.9781600960341166
  @DF-RHF Final Energy:  -422.97815740163321
    Total Energy =                       -422.9781574016329841
  @DF-RHF Final Energy:  -422.97815599704376
    Total Energy =                       -422.9781559970432454
  @DF-RHF Final Energy:  -422.94646647813090
    Total Energy =                       -422.9464664781305601
  @DF-RHF Final Energy:  -422.97390522387138
    Total Energy =                       -422.9739052238708155
  @DF-RHF Final Energy:  -422.97810447736288
    Total Energy =                       -422.9781044773638996
  @DF-RHF Final Energy:  -422.97763174500528
    Total Energy =                       -422.9776317450055103
  Basis Set: 6-31G*
  Basis Set:
  @DF-RHF Final Energy:  -422.97618838905163
    Total Energy =                       -422.9761883890513445
  Basis Set: 6-31G*
  Basis Set:
  Basis Set: 6-31G*
  Basis Set:
  @DF-RHF Final Energy:  -422.97808070242252
    Total Energy =                       -422.9780807024224032
  Basis Set: 6-31G*
  Basis Set:
  Basis Set: 6-31G*
  Basis Set:
  @DF-RHF Final Energy:  -422.97817589319129
    Total Energy =                       -422.9781758931911781
  Basis Set: 6-31G*
  Basis Set:
  Charge       = 0
  Multiplicity = 1
  Basis Set: 6-31G*
  Basis Set:

    Orbital Energies (a.u.)
    -----------------------

    Doubly Occupied:

       1A    -20.598947     2A    -20.544396     3A    -11.374032
       4A    -11.282510     5A    -11.232840     6A    -11.224674
       7A    -11.224075     8A    -11.221946     9A    -11.213183
      10A     -1.465914    11A     -1.361800    12A     -1.094410
      13A     -1.042559    14A     -1.004104    15A     -0.930526
      16A     -0.841312    17A     -0.802873    18A     -0.774011
      19A     -0.692593    20A     -0.685535    21A     -0.666462
      22A     -0.647101    23A     -0.606690    24A     -0.588756
      25A     -0.583021    26A     -0.565921    27A     -0.559425
      28A     -0.539289    29A     -0.522058    30A     -0.504972
      31A     -0.492489    32A     -0.478263    33A     -0.471498
      34A     -0.467126    35A     -0.450516    36A     -0.435821

  @DF-RHF Final Energy:  -422.97817688217418

   => Energetics <=

    Nuclear Repulsion Energy =            449.5812309113682090
    One-Electron Energy =               -1466.7355177006552367
    Two-Electron Energy =                 594.1761099071120498
    DFT Exchange-Correlation Energy =       0.0000000000000000
    Empirical Dispersion Energy =           0.0000000000000000
    PCM Polarization Energy =               0.0000000000000000
    EFP Energy =                            0.0000000000000000
    Total Energy =                       -422.9781768821749210
    Molecular point group: c1
  Basis Set: 6-31G*
  Basis Set:

  -Total Gradient:
     Atom            X                  Y                   Z
    ------   -----------------  -----------------  -----------------
       1       -0.001209111288    -0.002091455605     0.005844084978
       2        0.001858465987     0.003118135867    -0.011136037207
       3       -0.000049955913     0.000132330704    -0.000029149628
       4       -0.000905515769    -0.001235404905     0.010410009830
       5        0.000027533476    -0.000035188399     0.000044924130
       6        0.000057798411    -0.000028068764    -0.000042420966
       7       -0.000002306996     0.000004587439    -0.000028165135
       8        0.000192532644     0.000124768606    -0.005103815476
       9        0.000027073320     0.000006927511     0.000027999165
      10        0.000020138866    -0.000005924084     0.000030338347
      11       -0.000001158406     0.000016932679     0.000011669029
      12        0.000004056824    -0.000010630215    -0.000029472751
      13        0.000009727595     0.000012504544     0.000000191141
      14       -0.000004223250    -0.000005369648     0.000002905105
      15       -0.000009256036     0.000000814149    -0.000035598507
      16        0.000014082874     0.000012064589    -0.000003644379
      17       -0.000022164485    -0.000022164976     0.000004471065
      18       -0.000002046901     0.000005505009     0.000034471347
      19       -0.000028640179     0.000007380211     0.000000394012
      20        0.000022609041    -0.000008584285     0.000000743326
      21        0.000002725165    -0.000017041419    -0.000011785251
      22       -0.000001106816    -0.000002608237     0.000015221103
      23       -0.000001258153     0.000020489229    -0.000007333280

  **** Optimization is complete! (in 29 steps) ****
    Final optimized geometry and variables:
    Molecular point group: c1

    Geometry (in Angstrom), charge = 0, multiplicity = 1:

    O           -2.863378307012     1.253178078997     0.372063367230
    C           -2.674355420786     0.136216704336     0.014642604813
    C           -3.742411541319    -0.805181669330    -0.471888503821
    O           -1.485394139626    -0.453719854391     0.049500664132
    H           -3.545192334829    -1.075103348988    -1.503419467166
    H           -3.723350549591    -1.716751369876     0.113702078640
    H           -4.709420741292    -0.331117354214    -0.393957738447
    C           -0.335851462380     0.384458580503     0.116123834542
    C            0.888145282043    -0.502059571558    -0.015526155767
    H           -0.387634194268     1.113220892943    -0.683151642288
    H           -0.339401493160     0.920971768506     1.055371829849
    C            2.189866436921     0.299253113953     0.045354946170
    H            0.828844290933    -1.046159066636    -0.954066302744
    H            0.869724077117    -1.243245832140     0.778606262929
    C            3.436278604306    -0.578208224510    -0.084035891058
    H            2.194993114834     1.046718106177    -0.746228888816
    H            2.234881789323     0.848504526620     0.984073208156
    C            4.736407194390     0.222438312932    -0.024599178765
    H            3.392728566642    -1.128186847737    -1.021440173398
    H            3.434361978355    -1.323735235567     0.707939292295
    H            4.785283532361     0.951430353937    -0.828477916411
    H            5.601512806267    -0.426985360130    -0.114309227282
    H            4.822986543713     0.760898504246     0.914846435567

  Mulliken Charges: (a.u.)
   Center  Symbol    Alpha    Beta     Spin     Total
       1     O     4.28083  4.28083  0.00000 -0.56166
       2     C     2.61964  2.61964  0.00000  0.76072
       3     C     3.28202  3.28202  0.00000 -0.56405
       4     O     4.31247  4.31247  0.00000 -0.62495
       5     H     0.40206  0.40206  0.00000  0.19587
       6     H     0.39954  0.39954  0.00000  0.20091
       7     H     0.39726  0.39726  0.00000  0.20548
       8     C     2.99451  2.99451  0.00000  0.01098
       9     C     3.16450  3.16450  0.00000 -0.32900
      10     H     0.41457  0.41457  0.00000  0.17087
      11     H     0.40882  0.40882  0.00000  0.18236
      12     C     3.16013  3.16013  0.00000 -0.32027
      13     H     0.41512  0.41512  0.00000  0.16976
      14     H     0.41325  0.41325  0.00000  0.17349
      15     C     3.15143  3.15143  0.00000 -0.30285
      16     H     0.42126  0.42126  0.00000  0.15749
      17     H     0.42039  0.42039  0.00000  0.15923
      18     C     3.23988  3.23988  0.00000 -0.47976
      19     H     0.42154  0.42154  0.00000  0.15693
      20     H     0.42116  0.42116  0.00000  0.15768
      21     H     0.42096  0.42096  0.00000  0.15807
      22     H     0.41795  0.41795  0.00000  0.16411
      23     H     0.42071  0.42071  0.00000  0.15858

   Total alpha = 36.00000, Total beta = 36.00000, Total charge =  0.00000
