  ==> Input File <==

--------------------------------------------------------------------------
set {
	reference rhf
	basis 6-31G*
}

set_num_threads( 4 )
memory 2 gb

molecule MOL {
0 1

H	 2.591676	 2.013956	 0.335017
O	 3.341076	 1.666752	 -0.126416
C	 3.569581	 0.339145	 0.272707
C	 4.508397	 0.224081	 1.468581
H	 2.597914	 -0.061931	 0.530921
H	 3.950795	 -0.249200	 -0.561143
C	 5.929511	 0.722182	 1.194357
H	 4.080177	 0.780931	 2.297985
H	 4.543756	 -0.820771	 1.772557
C	 6.861072	 0.543283	 2.396441
H	 5.892631	 1.771977	 0.916986
H	 6.342438	 0.186190	 0.339638
C	 8.318720	 0.947656	 2.147271
H	 6.469792	 1.109234	 3.239914
H	 6.840501	 -0.501963	 2.697669
C	 8.539759	 2.442714	 1.901464
H	 8.908989	 0.647316	 3.010517
H	 8.709426	 0.381618	 1.303004
C	 10.018291	 2.811923	 1.763386
H	 8.104081	 3.009845	 2.722839
H	 8.014307	 2.755922	 1.002518
C	 10.241384	 4.302721	 1.511563
H	 10.549077	 2.515289	 2.665473
H	 10.457692	 2.239023	 0.949386
H	 9.841548	 4.901840	 2.324836
H	 11.298448	 4.532782	 1.420338
H	 9.753221	 4.623382	 0.595464

	symmetry c1
}
set optking {
	frozen_dihedral = ("
		4 3 2 1
	")
}

ee = optimize('scf')
oeprop('DIPOLE', 'QUADRUPOLE', 'MULLIKEN_CHARGES')
f=open( 'psi4out.xyz', 'w' )
f.write( "27  " )
f.write( str(ee) + "\n" )
f.write( MOL.save_string_xyz() )
f.close()
--------------------------------------------------------------------------

    Molecular point group: c1
  Charge       = 0
  Multiplicity = 1
  Basis Set: 6-31G*
  Basis Set:
  @DF-RHF Final Energy:  -388.27966763651045
    Total Energy =                       -388.2796676365106805
    Molecular point group: c1
  Basis Set: 6-31G*
  Basis Set:
  Basis Set: 6-31G*
  Basis Set:
  @DF-RHF Final Energy:  -388.28106683183705
    Total Energy =                       -388.2810668318372791
  Basis Set: 6-31G*
  Basis Set:
  Basis Set: 6-31G*
  Basis Set:
  @DF-RHF Final Energy:  -388.28149480338897
    Total Energy =                       -388.2814948033890232
  Basis Set: 6-31G*
  Basis Set:
  Basis Set: 6-31G*
  Basis Set:
  @DF-RHF Final Energy:  -388.28149760596699
    Total Energy =                       -388.2814976059671608
  Basis Set: 6-31G*
  Basis Set:
  @DF-RHF Final Energy:  -388.28150272060083
    Total Energy =                       -388.2815027206008835
  Basis Set: 6-31G*
  Basis Set:
  @DF-RHF Final Energy:  -388.28150419385906
    Total Energy =                       -388.2815041938588365
  Basis Set: 6-31G*
  Basis Set:
  Basis Set: 6-31G*
  Basis Set:
  @DF-RHF Final Energy:  -388.28150271748871
    Total Energy =                       -388.2815027174902980
  Basis Set: 6-31G*
  Basis Set:
  Basis Set: 6-31G*
  Basis Set:
  @DF-RHF Final Energy:  -388.28150460414224
    Total Energy =                       -388.2815046041417872
  Basis Set: 6-31G*
  Basis Set:
  Charge       = 0
  Multiplicity = 1
  Basis Set: 6-31G*
  Basis Set:

    Orbital Energies (a.u.)
    -----------------------

    Doubly Occupied:

       1A    -20.553125     2A    -11.268096     3A    -11.213651
       4A    -11.211162     5A    -11.210554     6A    -11.209659
       7A    -11.208052     8A    -11.207334     9A    -11.205029
      10A     -1.359354    11A     -1.088847    12A     -1.056643
      13A     -1.007885    14A     -0.943118    15A     -0.881234
      16A     -0.816554    17A     -0.798305    18A     -0.772606
      19A     -0.689786    20A     -0.647901    21A     -0.639475
      22A     -0.605012    23A     -0.598947    24A     -0.584022
      25A     -0.568267    26A     -0.552307    27A     -0.534798
      28A     -0.520280    29A     -0.509228    30A     -0.490591
      31A     -0.476286    32A     -0.467589    33A     -0.463691
      34A     -0.455673    35A     -0.449491    36A     -0.436833
      37A     -0.419756

  @DF-RHF Final Energy:  -388.28150462933507

   => Energetics <=

    Nuclear Repulsion Energy =            459.8107494534741022
    One-Electron Energy =               -1437.9422239019136214
    Two-Electron Energy =                 589.8499698191037623
    DFT Exchange-Correlation Energy =       0.0000000000000000
    Empirical Dispersion Energy =           0.0000000000000000
    PCM Polarization Energy =               0.0000000000000000
    EFP Energy =                            0.0000000000000000
    Total Energy =                       -388.2815046293358137
    Molecular point group: c1
  Basis Set: 6-31G*
  Basis Set:

  -Total Gradient:
     Atom            X                  Y                   Z
    ------   -----------------  -----------------  -----------------
       1       -0.001150278658    -0.000493840636    -0.001372805856
       2        0.001787290686     0.000588530984     0.001366070080
       3       -0.001562182761     0.000016774083     0.000726988463
       4        0.000913423768    -0.000092990977    -0.000722195260
       5        0.000005670755    -0.000016757487    -0.000000592885
       6       -0.000004574366     0.000000200127    -0.000002937319
       7       -0.000001637287     0.000003219009     0.000002865413
       8        0.000007254455    -0.000000819746     0.000006585136
       9        0.000000537113     0.000000657360    -0.000005166372
      10       -0.000001534278    -0.000009720104     0.000002438356
      11        0.000002906937    -0.000008619646    -0.000006286981
      12        0.000004455609     0.000010318001     0.000004216182
      13       -0.000000685545    -0.000002445630     0.000002171194
      14        0.000004469234     0.000000586556     0.000004329550
      15       -0.000006284328     0.000000502865    -0.000001890228
      16       -0.000000271310     0.000001229949    -0.000002756829
      17       -0.000002067932     0.000001989158     0.000002178160
      18        0.000004304406     0.000000631090     0.000003970341
      19       -0.000000862618     0.000000415228    -0.000007446186
      20        0.000003578046     0.000001009640     0.000000340576
      21       -0.000003089669    -0.000000476615    -0.000001784156
      22        0.000000467339    -0.000000008723     0.000002947874
      23       -0.000001067230    -0.000001704927    -0.000001236052
      24        0.000000246884     0.000000965893    -0.000001530979
      25       -0.000000873466     0.000001246993     0.000000381052
      26       -0.000000171289     0.000000229717     0.000001250541
      27        0.000000975510    -0.000001122159    -0.000000103810

  **** Optimization is complete! (in 9 steps) ****
    Final optimized geometry and variables:
    Molecular point group: c1

    Geometry (in Angstrom), charge = 0, multiplicity = 1:

    H           -4.063607601798     0.522181521303    -0.978557674563
    O           -3.336870281327     0.146849234330    -1.453557040894
    C           -3.183152275892    -1.205089258979    -1.093601075285
    C           -2.246228078915    -1.388411750205     0.094410904604
    H           -4.150058801713    -1.656785676739    -0.883688416580
    H           -2.777195981294    -1.708757985207    -1.963477181841
    C           -0.829258674056    -0.877465662285    -0.169396613989
    H           -2.665805826015    -0.874514022933     0.958384509230
    H           -2.217129671084    -2.446965238772     0.348835346726
    C            0.091381963550    -1.036902341741     1.043475427613
    H           -0.885766377636     0.162344265694    -0.469559046815
    H           -0.406711307694    -1.421032510983    -1.013712183490
    C            1.549229382681    -0.630270169684     0.798698660611
    H           -0.306419949551    -0.459003845714     1.876455915461
    H            0.073827847622    -2.077397745267     1.362609826506
    C            1.763128610987     0.861553902431     0.528791498901
    H            2.136138010046    -0.913350580740     1.670319178376
    H            1.947535782236    -1.207700092333    -0.034163385274
    C            3.239807190119     1.235628139694     0.384333338435
    H            1.325458334974     1.439370513301     1.341875955133
    H            1.235031489598     1.157102549024    -0.374052505219
    C            3.455659471807     2.724017437861     0.112546948187
    H            3.773622616364     0.953270356779     1.289397986052
    H            3.680689884336     0.654446890077    -0.422969955286
    H            3.054694410438     3.331857772221     0.918873496723
    H            4.511522219111     2.957958232789     0.016059820233
    H            2.963747448191     3.030118428395    -0.806413488880

  Mulliken Charges: (a.u.)
   Center  Symbol    Alpha    Beta     Spin     Total
       1     H     0.28128  0.28128  0.00000  0.43743
       2     O     4.36973  4.36973  0.00000 -0.73945
       3     C     3.00123  3.00123  0.00000 -0.00245
       4     C     3.16017  3.16017  0.00000 -0.32034
       5     H     0.42829  0.42829  0.00000  0.14342
       6     H     0.41801  0.41801  0.00000  0.16398
       7     C     3.15638  3.15638  0.00000 -0.31275
       8     H     0.42650  0.42650  0.00000  0.14700
       9     H     0.42508  0.42508  0.00000  0.14983
      10     C     3.15286  3.15286  0.00000 -0.30571
      11     H     0.40657  0.40657  0.00000  0.18685
      12     H     0.42553  0.42553  0.00000  0.14893
      13     C     3.15278  3.15278  0.00000 -0.30555
      14     H     0.42492  0.42492  0.00000  0.15016
      15     H     0.42403  0.42403  0.00000  0.15195
      16     C     3.15295  3.15295  0.00000 -0.30590
      17     H     0.42305  0.42305  0.00000  0.15390
      18     H     0.42426  0.42426  0.00000  0.15148
      19     C     3.15101  3.15101  0.00000 -0.30203
      20     H     0.42535  0.42535  0.00000  0.14929
      21     H     0.41978  0.41978  0.00000  0.16044
      22     C     3.23907  3.23907  0.00000 -0.47814
      23     H     0.42400  0.42400  0.00000  0.15200
      24     H     0.42335  0.42335  0.00000  0.15331
      25     H     0.42232  0.42232  0.00000  0.15535
      26     H     0.42015  0.42015  0.00000  0.15970
      27     H     0.42135  0.42135  0.00000  0.15730

   Total alpha = 37.00000, Total beta = 37.00000, Total charge = -0.00000
