  ==> Input File <==

--------------------------------------------------------------------------
set {
	reference rhf
	basis cc-pvtz
}

set_num_threads( 4 )
memory 2 gb

molecule MOL {
0 1

H	 0.789710	 -0.405961	 2.315206
C	 -0.170628	 -0.447109	 1.822490
O	 -0.000000	 0.000000	 0.518769
H	 -0.533533	 -1.472542	 1.847871
H	 -0.872155	 0.178996	 2.369945
C	 -1.165153	 0.000000	 -0.236961
H	 -1.229451	 0.882440	 -0.870223
H	 -2.002557	 0.000000	 0.445289
H	 -1.229451	 -0.882440	 -0.870223

	symmetry c1
}
set optking {
	frozen_dihedral = ("
		2 3 6 7
	")
}

ee = optimize('scf')
oeprop('DIPOLE', 'QUADRUPOLE', 'MULLIKEN_CHARGES')
f=open( 'psi4out.xyz', 'w' )
f.write( "9  " )
f.write( str(ee) + "\n" )
f.write( MOL.save_string_xyz() )
f.close()
--------------------------------------------------------------------------

    Molecular point group: c1
  Charge       = 0
  Multiplicity = 1
  Basis Set: CC-PVTZ
  Basis Set:
  @DF-RHF Final Energy:  -154.12338252606332
    Total Energy =                       -154.1233825260633239
    Molecular point group: c1
  Basis Set: CC-PVTZ
  Basis Set:
  Basis Set: CC-PVTZ
  Basis Set:
  @DF-RHF Final Energy:  -154.12419247377795
    Total Energy =                       -154.1241924737780096
  Basis Set: CC-PVTZ
  Basis Set:
  Basis Set: CC-PVTZ
  Basis Set:
  @DF-RHF Final Energy:  -154.12439970736074
    Total Energy =                       -154.1243997073607375
  Basis Set: CC-PVTZ
  Basis Set:
  Charge       = 0
  Multiplicity = 1
  Basis Set: CC-PVTZ
  Basis Set:

    Orbital Energies (a.u.)
    -----------------------

    Doubly Occupied:

       1A    -20.547567     2A    -11.263500     3A    -11.262748
       4A     -1.379041     5A     -0.975829     6A     -0.872679
       7A     -0.660798     8A     -0.654477     9A     -0.645291
      10A     -0.558269    11A     -0.527148    12A     -0.475312
      13A     -0.416633

  @DF-RHF Final Energy:  -154.12440112345035

   => Energetics <=

    Nuclear Repulsion Energy =             84.6542368875511357
    One-Electron Energy =                -377.0786932236824214
    Two-Electron Energy =                 138.3000552126809737
    DFT Exchange-Correlation Energy =       0.0000000000000000
    Empirical Dispersion Energy =           0.0000000000000000
    PCM Polarization Energy =               0.0000000000000000
    EFP Energy =                            0.0000000000000000
    Total Energy =                       -154.1244011234503262
    Molecular point group: c1
  Basis Set: CC-PVTZ
  Basis Set:

  -Total Gradient:
     Atom            X                  Y                   Z
    ------   -----------------  -----------------  -----------------
       1        0.000012917733     0.000016626370    -0.000041034449
       2       -0.000483646734     0.001934379218     0.000620556919
       3        0.000251763093    -0.002460585592    -0.000526161138
       4        0.000004669704     0.000020593668    -0.000022260448
       5       -0.000005615078     0.000013474709    -0.000029047846
       6        0.001352319074    -0.000787305512    -0.001926515337
       7       -0.001149283237     0.001261285070     0.001915779908
       8       -0.000024433675     0.000001273826     0.000010349893
       9        0.000041309123     0.000000258242    -0.000001667504

  **** Optimization is complete! (in 4 steps) ****
    Final optimized geometry and variables:
    Molecular point group: c1

    Geometry (in Angstrom), charge = 0, multiplicity = 1:

    H            1.274909429109    -0.240783346605     1.594356432059
    C            0.304819777491    -0.291695132979     1.121213687591
    O            0.450057968455     0.151161552422    -0.187606953678
    H           -0.047954420311    -1.320133395027     1.163753661769
    H           -0.388895059317     0.333639378237     1.678159411217
    C           -0.715137211611     0.152192607561    -0.951410183485
    H           -0.729433281778     1.045783692451    -1.561555071898
    H           -1.603940415105     0.166348501834    -0.326747665748
    H           -0.761853416992    -0.722865691965    -1.592329502804

  Mulliken Charges: (a.u.)
   Center  Symbol    Alpha    Beta     Spin     Total
       1     H     0.44957  0.44957  0.00000  0.10087
       2     C     3.02099  3.02099  0.00000 -0.04197
       3     O     4.17159  4.17159  0.00000 -0.34319
       4     H     0.47349  0.47349  0.00000  0.05302
       5     H     0.47250  0.47250  0.00000  0.05501
       6     C     3.01732  3.01732  0.00000 -0.03464
       7     H     0.45456  0.45456  0.00000  0.09088
       8     H     0.47571  0.47571  0.00000  0.04857
       9     H     0.46428  0.46428  0.00000  0.07145

   Total alpha = 13.00000, Total beta = 13.00000, Total charge =  0.00000
