  ==> Input File <==

--------------------------------------------------------------------------
set {
	reference rhf
	basis 6-31G*
}

set_num_threads( 4 )
memory 2 gb

molecule MOL {
0 1

H	 2.343573	 -1.194853	 -0.150204
O	 1.654024	 -0.625927	 -0.460906
C	 1.135793	 0.118896	 0.612333
C	 0.031547	 1.023609	 0.088541
H	 1.915668	 0.729681	 1.063582
H	 0.754543	 -0.542641	 1.387006
C	 -1.134819	 0.293262	 -0.585751
H	 0.474374	 1.714721	 -0.623187
H	 -0.338529	 1.620940	 0.920081
C	 -1.917817	 -0.639439	 0.339494
H	 -0.758119	 -0.268455	 -1.433105
H	 -1.813832	 1.041889	 -0.986690
H	 -2.777680	 -1.057197	 -0.174994
H	 -1.310268	 -1.471279	 0.680599
H	 -2.283753	 -0.111424	 1.216626

	symmetry c1
}
set optking {
	frozen_dihedral = ("
		1 2 3 4
	")
}

ee = optimize('scf')
oeprop('DIPOLE', 'QUADRUPOLE', 'MULLIKEN_CHARGES')
f=open( 'psi4out.xyz', 'w' )
f.write( "15  " )
f.write( str(ee) + "\n" )
f.write( MOL.save_string_xyz() )
f.close()
--------------------------------------------------------------------------

    Molecular point group: c1
  Charge       = 0
  Multiplicity = 1
  Basis Set: 6-31G*
  Basis Set:
  @DF-RHF Final Energy:  -232.14390165803809
    Total Energy =                       -232.1439016580382599
    Molecular point group: c1
  Basis Set: 6-31G*
  Basis Set:
  Basis Set: 6-31G*
  Basis Set:
  @DF-RHF Final Energy:  -232.14389794036393
    Total Energy =                       -232.1438979403637859
  Basis Set: 6-31G*
  Basis Set:
  Basis Set: 6-31G*
  Basis Set:
  @DF-RHF Final Energy:  -232.14390202859047
    Total Energy =                       -232.1439020285904462
  Basis Set: 6-31G*
  Basis Set:
  Charge       = 0
  Multiplicity = 1
  Basis Set: 6-31G*
  Basis Set:

    Orbital Energies (a.u.)
    -----------------------

    Doubly Occupied:

       1A    -20.553418     2A    -11.267474     3A    -11.212396
       4A    -11.208420     5A    -11.204508     6A     -1.360000
       7A     -1.063560     8A     -0.969894     9A     -0.868265
      10A     -0.773995    11A     -0.704024    12A     -0.648563
      13A     -0.607298    14A     -0.572140    15A     -0.563784
      16A     -0.531819    17A     -0.509314    18A     -0.473486
      19A     -0.466323    20A     -0.452039    21A     -0.430666

  @DF-RHF Final Energy:  -232.14390205449283

   => Energetics <=

    Nuclear Repulsion Energy =            191.8958009962458675
    One-Electron Energy =                -695.1966359962344768
    Two-Electron Energy =                 271.1569329454956687
    DFT Exchange-Correlation Energy =       0.0000000000000000
    Empirical Dispersion Energy =           0.0000000000000000
    PCM Polarization Energy =               0.0000000000000000
    EFP Energy =                            0.0000000000000000
    Total Energy =                       -232.1439020544929690
    Molecular point group: c1
  Basis Set: 6-31G*
  Basis Set:

  -Total Gradient:
     Atom            X                  Y                   Z
    ------   -----------------  -----------------  -----------------
       1        0.000061112128     0.000048085866    -0.000011651372
       2       -0.000055909088    -0.000051421356     0.000011502360
       3       -0.000040599237    -0.000038972073     0.000008986831
       4        0.000037754689     0.000050577550    -0.000009126637
       5        0.000000203085     0.000002592664    -0.000001640915
       6        0.000008978055    -0.000000195869     0.000003496071
       7       -0.000008132312    -0.000001422157     0.000005666846
       8       -0.000002316532    -0.000001802739     0.000000315109
       9       -0.000001811332    -0.000000397774     0.000005233234
      10       -0.000004457541     0.000009816267     0.000004851618
      11        0.000008691595    -0.000008926567    -0.000007861721
      12       -0.000002812799    -0.000005439035     0.000000207441
      13       -0.000002879868     0.000002203713    -0.000003129818
      14       -0.000005757173    -0.000003116754    -0.000006545360
      15        0.000007936330    -0.000001581735    -0.000000303686

  **** Optimization is complete! (in 4 steps) ****
    Final optimized geometry and variables:
    Molecular point group: c1

    Geometry (in Angstrom), charge = 0, multiplicity = 1:

    H            2.344192927353    -1.194221072240    -0.152291968855
    O            1.653793407026    -0.625639855814    -0.461944125323
    C            1.136772687999     0.118952696798     0.612047978802
    C            0.031217091992     1.023018323048     0.089894082035
    H            1.916878138408     0.730469688140     1.061996641699
    H            0.757337428237    -0.542810006632     1.387442472941
    C           -1.134248535940     0.292143563484    -0.585525111032
    H            0.473031521248     1.715792509598    -0.620781681555
    H           -0.339668351898     1.618305708796     0.922576732059
    C           -1.919427361662    -0.638824099015     0.339654180483
    H           -0.756026266752    -0.271186313402    -1.431317252134
    H           -1.812114852299     1.040434239860    -0.988943845750
    H           -2.778743604150    -1.056573427121    -0.175804180518
    H           -1.312957715978    -1.470709662874     0.682574423527
    H           -2.286289168364    -0.109530687215     1.215576336140

  Mulliken Charges: (a.u.)
   Center  Symbol    Alpha    Beta     Spin     Total
       1     H     0.28058  0.28058  0.00000  0.43883
       2     O     4.36976  4.36976  0.00000 -0.73951
       3     C     2.99905  2.99905  0.00000  0.00189
       4     C     3.16107  3.16107  0.00000 -0.32213
       5     H     0.42930  0.42930  0.00000  0.14139
       6     H     0.43061  0.43061  0.00000  0.13878
       7     C     3.15354  3.15354  0.00000 -0.30708
       8     H     0.41446  0.41446  0.00000  0.17108
       9     H     0.42467  0.42467  0.00000  0.15066
      10     C     3.24319  3.24319  0.00000 -0.48638
      11     H     0.40728  0.40728  0.00000  0.18544
      12     H     0.42294  0.42294  0.00000  0.15411
      13     H     0.41906  0.41906  0.00000  0.16188
      14     H     0.41953  0.41953  0.00000  0.16095
      15     H     0.42495  0.42495  0.00000  0.15009

   Total alpha = 21.00000, Total beta = 21.00000, Total charge = -0.00000
