                              Psi4 1.0.54 Driver

  ==> Input File <==

--------------------------------------------------------------------------
set {
	reference rhf
	basis cc-pvtz
}

set_num_threads( 4 )
memory 2 gb

molecule MOL {
0 1

H	 -3.034039	 -0.667848	 0.004703
O	 -2.240597	 -1.171748	 0.000934
C	 -1.159675	 -0.364500	 0.000370
C	 -0.807461	 0.400137	 -1.093106
C	 -0.395603	 -0.325981	 1.156555
H	 -1.397217	 0.370293	 -1.991080
C	 0.318086	 1.202404	 -1.017352
H	 -0.695435	 -0.934225	 1.987865
C	 0.725115	 0.476391	 1.231182
H	 0.597015	 1.796461	 -1.867098
C	 1.081285	 1.245059	 0.127425
C	 1.542620	 0.536404	 2.496776
H	 1.952715	 1.870662	 0.168563
H	 2.602659	 0.513733	 2.276260
H	 1.315594	 -0.293278	 3.152392
H	 1.340667	 1.454051	 3.038794

	symmetry c1
}
set optking {
	frozen_dihedral = ("
		5 3 2 1
	")
}

ee,wfn = optimize('scf', return_wfn=True)
oeprop( wfn, 'DIPOLE', 'QUADRUPOLE', 'MULLIKEN_CHARGES')
f=open( 'psi4out.xyz', 'w' )
f.write( "16  " )
f.write( str(ee) + "\n" )
f.write( MOL.save_string_xyz() )
f.close()
--------------------------------------------------------------------------

    Molecular point group: c1
  Charge       = 0
  Multiplicity = 1
  Basis Set: CC-PVTZ
  Basis Set:
  @DF-RHF Final Energy:  -344.71608572066896
    Total Energy =                       -344.7160857206686160
    Molecular point group: c1
  Basis Set: CC-PVTZ
  Basis Set:
  Basis Set: CC-PVTZ
  Basis Set:
  @DF-RHF Final Energy:  -344.71658189886637
    Total Energy =                       -344.7165818988660817
  Basis Set: CC-PVTZ
  Basis Set:
  Basis Set: CC-PVTZ
  Basis Set:
  @DF-RHF Final Energy:  -344.71662713485466
    Total Energy =                       -344.7166271348544342
  Basis Set: CC-PVTZ
  Basis Set:
  Basis Set: CC-PVTZ
  Basis Set:
  @DF-RHF Final Energy:  -344.71663189790792
    Total Energy =                       -344.7166318979071775
  Basis Set: CC-PVTZ
  Basis Set:
  Basis Set: CC-PVTZ
  Basis Set:
  @DF-RHF Final Energy:  -344.71663311205685
    Total Energy =                       -344.7166331120567975
  Basis Set: CC-PVTZ
  Basis Set:
  Charge       = 0
  Multiplicity = 1
  Basis Set: CC-PVTZ
  Basis Set:

    Orbital Energies (a.u.)
    -----------------------

    Doubly Occupied:

       1A    -20.570129     2A    -11.287223     3A    -11.240241
       4A    -11.231419     5A    -11.220405     6A    -11.219825
       7A    -11.218477     8A    -11.217754     9A     -1.397245
      10A     -1.154911    11A     -1.046711    12A     -1.007651
      13A     -0.938974    14A     -0.829534    15A     -0.814290
      16A     -0.719382    17A     -0.680100    18A     -0.659721
      19A     -0.622654    20A     -0.593149    21A     -0.577708
      22A     -0.570493    23A     -0.552767    24A     -0.515402
      25A     -0.506777    26A     -0.485245    27A     -0.467559
      28A     -0.333693    29A     -0.321661

  @DF-RHF Final Energy:  -344.71663351815806

   => Energetics <=

    Nuclear Repulsion Energy =            345.8648735563904779
    One-Electron Energy =               -1153.1608186438309076
    Two-Electron Energy =                 462.5793115692823676
    DFT Exchange-Correlation Energy =       0.0000000000000000
    Empirical Dispersion Energy =           0.0000000000000000
    PCM Polarization Energy =               0.0000000000000000
    EFP Energy =                            0.0000000000000000
    Total Energy =                       -344.7166335181581189
    Molecular point group: c1
  Basis Set: CC-PVTZ
  Basis Set:

  -Total Gradient:
     Atom            X                  Y                   Z
    ------   -----------------  -----------------  -----------------
       1       -0.000025820779    -0.000075414100     0.001589948431
       2       -0.000359268245     0.000463878332    -0.001750223698
       3        0.001076072570    -0.001211926703    -0.000315721435
       4       -0.000026243486     0.000006014675    -0.000008058068
       5       -0.000696065425     0.000786670287     0.000477536220
       6       -0.000002017709    -0.000002765390     0.000003964092
       7       -0.000004857642    -0.000028072605     0.000012504634
       8        0.000010387960     0.000017491048    -0.000025757200
       9        0.000003252193     0.000026037412    -0.000010762249
      10        0.000003333275     0.000002155567     0.000001987396
      11        0.000009904524     0.000010874342     0.000011211754
      12        0.000002226276     0.000003644016     0.000000511516
      13       -0.000006237714     0.000001065501     0.000009471035
      14        0.000008719034    -0.000010139683     0.000000236420
      15       -0.000003477976     0.000003287787     0.000008756927
      16        0.000010093141     0.000007199512    -0.000005605775

  **** Optimization is complete! (in 6 steps) ****
    Final optimized geometry and variables:
    Molecular point group: c1

    Geometry (in Angstrom), charge = 0, multiplicity = 1:

    H           -2.876804594236    -0.912427842518    -0.415834603208
    O           -2.077980884651    -1.409294328046    -0.426620565262
    C           -0.996086921271    -0.576096167859    -0.377819857475
    C           -0.654091006996     0.198265772442    -1.466773456126
    C           -0.230221478361    -0.545871872440     0.772697530030
    H           -1.246793853649     0.153671785139    -2.360060296910
    C            0.464333074942     1.007657977507    -1.389337052572
    H           -0.521680142204    -1.166593147072     1.598044264122
    C            0.894182496422     0.257462319889     0.852013740187
    H            0.740095917562     1.611704634696    -2.232930178671
    C            1.233575161615     1.038038183077    -0.244668479435
    C            1.721778935789     0.304377883184     2.112065682242
    H            2.103709084581     1.666196115128    -0.203581958802
    H            2.780244592442     0.290469498918     1.883303168423
    H            1.505340052206    -0.537228649623     2.756179826011
    H            1.520040018126     1.211607180664     2.671575252496

  Mulliken Charges: (a.u.)
   Center  Symbol    Alpha    Beta     Spin     Total
       1     H     0.38765  0.38765  0.00000  0.22470
       2     O     4.19122  4.19122  0.00000 -0.38245
       3     C     2.85615  2.85615  0.00000  0.28769
       4     C     3.13013  3.13013  0.00000 -0.26026
       5     C     3.14027  3.14027  0.00000 -0.28054
       6     H     0.41981  0.41981  0.00000  0.16037
       7     C     3.06070  3.06070  0.00000 -0.12140
       8     H     0.41927  0.41927  0.00000  0.16146
       9     C     2.94483  2.94483  0.00000  0.11034
      10     H     0.42241  0.42241  0.00000  0.15519
      11     C     3.10864  3.10864  0.00000 -0.21727
      12     C     3.14637  3.14637  0.00000 -0.29274
      13     H     0.42703  0.42703  0.00000  0.14595
      14     H     0.44792  0.44792  0.00000  0.10417
      15     H     0.45022  0.45022  0.00000  0.09956
      16     H     0.44738  0.44738  0.00000  0.10524

   Total alpha = 29.00000, Total beta = 29.00000, Total charge = -0.00000

*** Psi4 exiting successfully. Buy a developer a beer!
