                              Psi4 1.0.54 Driver

  ==> Input File <==

--------------------------------------------------------------------------
set {
	reference rhf
	basis cc-pvtz
}

set_num_threads( 4 )
memory 2 gb

molecule MOL {
0 1

H	 -3.162190	 0.493205	 -0.000107
C	 -2.363908	 -0.234727	 0.000005
O	 -1.158738	 0.454634	 -0.000087
H	 -2.464314	 -0.863616	 -0.882153
H	 -2.464327	 -0.863359	 0.882345
C	 -0.028653	 -0.359624	 -0.014544
C	 1.212810	 0.509376	 -0.013048
H	 -0.039224	 -0.998188	 -0.898151
H	 -0.029246	 -1.015491	 0.856363
C	 2.497811	 -0.310920	 -0.028431
H	 1.177202	 1.164084	 -0.876770
H	 1.187120	 1.146871	 0.863817
H	 2.555383	 -0.939023	 -0.911187
H	 3.367857	 0.334090	 -0.027159
H	 2.565512	 -0.956122	 0.841167

	symmetry c1
}
set optking {
	frozen_dihedral = ("
		6 3 2 4
	")
}

ee,wfn = optimize('scf', return_wfn=True)
oeprop( wfn, 'DIPOLE', 'QUADRUPOLE', 'MULLIKEN_CHARGES')
f=open( 'psi4out.xyz', 'w' )
f.write( "15  " )
f.write( str(ee) + "\n" )
f.write( MOL.save_string_xyz() )
f.close()
--------------------------------------------------------------------------

    Molecular point group: c1
  Charge       = 0
  Multiplicity = 1
  Basis Set: CC-PVTZ
  Basis Set:
  @DF-RHF Final Energy:  -232.22822230414596
    Total Energy =                       -232.2282223041461293
    Molecular point group: c1
  Basis Set: CC-PVTZ
  Basis Set:
  Charge       = 0
  Multiplicity = 1
  Basis Set: CC-PVTZ
  Basis Set:

    Orbital Energies (a.u.)
    -----------------------

    Doubly Occupied:

       1A    -20.547594     2A    -11.264442     3A    -11.261823
       4A    -11.212818     5A    -11.210768     6A     -1.381859
       7A     -1.058467     8A     -0.956166     9A     -0.877379
      10A     -0.809570    11A     -0.677207    12A     -0.655959
      13A     -0.632328    14A     -0.608517    15A     -0.565274
      16A     -0.540875    17A     -0.503767    18A     -0.490465
      19A     -0.478385    20A     -0.462919    21A     -0.416820

  @DF-RHF Final Energy:  -232.22822249767518

   => Energetics <=

    Nuclear Repulsion Energy =            189.9973487120080904
    One-Electron Energy =                -691.2243443314462183
    Two-Electron Energy =                 268.9987731217628379
    DFT Exchange-Correlation Energy =       0.0000000000000000
    Empirical Dispersion Energy =           0.0000000000000000
    PCM Polarization Energy =               0.0000000000000000
    EFP Energy =                            0.0000000000000000
    Total Energy =                       -232.2282224976752900
    Molecular point group: c1
  Basis Set: CC-PVTZ
  Basis Set:

  -Total Gradient:
     Atom            X                  Y                   Z
    ------   -----------------  -----------------  -----------------
       1       -0.000042654684    -0.000008508530    -0.000000063655
       2       -0.000147933223     0.000092947440    -0.000094726678
       3        0.000028982823    -0.000026288565     0.000116598695
       4        0.000057795723    -0.000061104792     0.000055921317
       5        0.000030071908     0.000016838587    -0.000013408998
       6        0.000049879293    -0.000018053641    -0.000062984497
       7        0.000015727034    -0.000015209863     0.000004268331
       8       -0.000011316360     0.000008119821     0.000003229687
       9        0.000000831616     0.000000159362    -0.000005279650
      10        0.000009876924     0.000013399226    -0.000001537478
      11        0.000001192116    -0.000001805358    -0.000000647282
      12        0.000000123452     0.000002109785     0.000000841120
      13        0.000000427643    -0.000001926455    -0.000001075508
      14        0.000009454747    -0.000001205583    -0.000000572129
      15       -0.000002459014     0.000000528567    -0.000000563275

  **** Optimization is complete! (in 2 steps) ****
    Final optimized geometry and variables:
    Molecular point group: c1

    Geometry (in Angstrom), charge = 0, multiplicity = 1:

    H           -3.162454545409     0.496279731406     0.011300044087
    C           -2.364382631845    -0.232018285893     0.011827525416
    O           -1.158348503820     0.455652370713     0.010049745883
    H           -2.465711766439    -0.862652541246    -0.869036914082
    H           -2.464507094018    -0.859562545359     0.895060732842
    C           -0.028999037104    -0.359577273205    -0.002857606022
    C            1.213543537054     0.508072083821    -0.002586159315
    H           -0.040157281865    -0.999605306517    -0.885450770226
    H           -0.030229518020    -1.014238583993     0.869049080017
    C            2.497712019864    -0.313694708963    -0.016870589944
    H            1.178746890773     1.161608287211    -0.867307163956
    H            1.188698645929     1.146942749249     0.873365689671
    H            2.554543441356    -0.943078049581    -0.898820597577
    H            3.368655638671     0.330248186191    -0.016413258775
    H            2.564548326687    -0.957866839562     0.853621284568

  Mulliken Charges: (a.u.)
   Center  Symbol    Alpha    Beta     Spin     Total
       1     H     0.44685  0.44685  0.00000  0.10630
       2     C     3.03348  3.03348  0.00000 -0.06695
       3     O     4.17152  4.17152  0.00000 -0.34303
       4     H     0.47227  0.47227  0.00000  0.05546
       5     H     0.47203  0.47203  0.00000  0.05594
       6     C     2.95607  2.95607  0.00000  0.08786
       7     C     3.08014  3.08014  0.00000 -0.16028
       8     H     0.47578  0.47578  0.00000  0.04843
       9     H     0.47591  0.47591  0.00000  0.04818
      10     C     3.15581  3.15581  0.00000 -0.31163
      11     H     0.45111  0.45111  0.00000  0.09778
      12     H     0.45110  0.45110  0.00000  0.09780
      13     H     0.45584  0.45584  0.00000  0.08833
      14     H     0.44626  0.44626  0.00000  0.10747
      15     H     0.45583  0.45583  0.00000  0.08833

   Total alpha = 21.00000, Total beta = 21.00000, Total charge =  0.00000

*** Psi4 exiting successfully. Buy a developer a beer!
