                              Psi4 1.0.54 Driver

  ==> Input File <==

--------------------------------------------------------------------------
set {
	reference rhf
	basis cc-pvtz
}

set_num_threads( 4 )
memory 2 gb

molecule MOL {
0 1

O	 0.074859	 1.259913	 0.000487
C	 0.029579	 0.077224	 0.000078
C	 -1.232024	 -0.747986	 0.000015
O	 1.106862	 -0.690040	 -0.000204
C	 -2.501333	 0.088633	 -0.000052
H	 -1.188688	 -1.400343	 -0.865133
H	 -1.188768	 -1.400271	 0.865225
H	 -2.548081	 0.725545	 -0.873205
H	 -3.371524	 -0.556357	 -0.000040
H	 -2.548126	 0.725612	 0.873047
C	 2.363819	 -0.043742	 -0.000327
H	 2.475340	 0.572845	 -0.879883
H	 3.102371	 -0.828832	 -0.000058
H	 2.475183	 0.573248	 0.878972

	symmetry c1
}
ee,wfn = energy('scf', return_wfn=True)
oeprop( wfn, 'DIPOLE', 'QUADRUPOLE', 'MULLIKEN_CHARGES')
oeprop( wfn, 'GRID_ESP')
f=open( 'psi4out.xyz', 'w' )
f.write( "14  " )
f.write( str(ee) + "\n" )
f.write( MOL.save_string_xyz() )
f.close()
--------------------------------------------------------------------------

    Molecular point group: c1

    Geometry (in Angstrom), charge = 0, multiplicity = 1:

       Center              X                  Y                   Z               Mass
    ------------   -----------------  -----------------  -----------------  -----------------
           O          0.074769556507     1.259871723446     0.000486873383    15.994914619560
           C          0.029489556507     0.077182723446     0.000077873383    12.000000000000
           C         -1.232113443493    -0.748027276554     0.000014873383    12.000000000000
           O          1.106772556507    -0.690081276554    -0.000204126617    15.994914619560
           C         -2.501422443493     0.088591723446    -0.000052126617    12.000000000000
           H         -1.188777443493    -1.400384276554    -0.865133126617     1.007825032070
           H         -1.188857443493    -1.400312276554     0.865224873383     1.007825032070
           H         -2.548170443493     0.725503723446    -0.873205126617     1.007825032070
           H         -3.371613443493    -0.556398276554    -0.000040126617     1.007825032070
           H         -2.548215443493     0.725570723446     0.873046873383     1.007825032070
           C          2.363729556507    -0.043783276554    -0.000327126617    12.000000000000
           H          2.475250556507     0.572803723446    -0.879883126617     1.007825032070
           H          3.102281556507    -0.828873276554    -0.000058126617     1.007825032070
           H          2.475093556507     0.573206723446     0.878971873383     1.007825032070

  Charge       = 0
  Multiplicity = 1
  Basis Set: CC-PVTZ
  Basis Set:

    Orbital Energies (a.u.)
    -----------------------

    Doubly Occupied:

       1A    -20.597174     2A    -20.534991     3A    -11.365218
       4A    -11.279102     5A    -11.237253     6A    -11.214844
       7A     -1.473121     8A     -1.366740     9A     -1.065430
      10A     -0.981248    11A     -0.878883    12A     -0.771027
      13A     -0.702952    14A     -0.686116    15A     -0.675542
      16A     -0.621665    17A     -0.604232    18A     -0.545622
      19A     -0.538570    20A     -0.523144    21A     -0.515970
      22A     -0.497274    23A     -0.461299    24A     -0.442667

  @DF-RHF Final Energy:  -305.98771494474818

   => Energetics <=

    Nuclear Repulsion Energy =            247.5664754832843357
    One-Electron Energy =                -907.9479439925498809
    Two-Electron Energy =                 354.3937535645176240
    DFT Exchange-Correlation Energy =       0.0000000000000000
    Empirical Dispersion Energy =           0.0000000000000000
    PCM Polarization Energy =               0.0000000000000000
    EFP Energy =                            0.0000000000000000
    Total Energy =                       -305.9877149447479496

  Mulliken Charges: (a.u.)
   Center  Symbol    Alpha    Beta     Spin     Total
       1     O     4.19630  4.19630  0.00000 -0.39260
       2     C     2.80245  2.80245  0.00000  0.39510
       3     C     3.09448  3.09448  0.00000 -0.18896
       4     O     4.14710  4.14710  0.00000 -0.29419
       5     C     3.13977  3.13977  0.00000 -0.27953
       6     H     0.44123  0.44123  0.00000  0.11755
       7     H     0.44123  0.44123  0.00000  0.11754
       8     H     0.44837  0.44837  0.00000  0.10327
       9     H     0.45034  0.45034  0.00000  0.09932
      10     H     0.44836  0.44836  0.00000  0.10329
      11     C     3.03627  3.03627  0.00000 -0.07254
      12     H     0.45432  0.45432  0.00000  0.09136
      13     H     0.44549  0.44549  0.00000  0.10903
      14     H     0.45431  0.45431  0.00000  0.09138

   Total alpha = 24.00000, Total beta = 24.00000, Total charge =  0.00000

*** Psi4 exiting successfully. Buy a developer a beer!
