                              Psi4 1.0.54 Driver

  ==> Input File <==

--------------------------------------------------------------------------
set {
	reference rhf
	basis cc-pvtz
}

set_num_threads( 4 )
memory 2 gb

molecule MOL {
0 1

O	 3.219313	 0.959291	 -0.614106
C	 2.698710	 0.058177	 -0.050237
C	 1.246364	 -0.005813	 0.348416
O	 3.344101	 -1.038700	 0.312317
C	 0.453207	 1.232821	 -0.049003
H	 0.839270	 -0.907818	 -0.092281
H	 1.216683	 -0.160521	 1.422434
C	 -0.998367	 1.217982	 0.432195
H	 0.481498	 1.345443	 -1.127236
H	 0.951413	 2.105557	 0.354893
C	 -1.882951	 0.151251	 -0.211235
H	 -1.429490	 2.193659	 0.228843
H	 -1.019755	 1.099323	 1.513279
C	 -1.666314	 -1.239332	 0.379642
H	 -2.926344	 0.433429	 -0.090498
H	 -1.700236	 0.109105	 -1.280990
C	 -2.540571	 -2.314329	 -0.259755
H	 -1.861229	 -1.209222	 1.448960
H	 -0.620561	 -1.517235	 0.269928
C	 -2.319746	 -3.700282	 0.337025
H	 -3.585823	 -2.038132	 -0.150740
H	 -2.344930	 -2.347630	 -1.328152
H	 -2.954662	 -4.438887	 -0.138716
H	 -2.541342	 -3.708826	 1.399066
H	 -1.290430	 -4.020265	 0.213219
C	 4.720529	 -1.114346	 0.001449
H	 4.874321	 -1.055557	 -1.065852
H	 5.057824	 -2.067950	 0.373977
H	 5.264321	 -0.313596	 0.480350

	symmetry c1
}
set optking {
	frozen_dihedral = ("
		15 11 8 5
	")
}

ee,wfn = optimize('scf', return_wfn=True)
oeprop( wfn, 'DIPOLE', 'QUADRUPOLE', 'MULLIKEN_CHARGES')
f=open( 'psi4out.xyz', 'w' )
f.write( "29  " )
f.write( str(ee) + "\n" )
f.write( MOL.save_string_xyz() )
f.close()
--------------------------------------------------------------------------

    Molecular point group: c1
  Charge       = 0
  Multiplicity = 1
  Basis Set: CC-PVTZ
  Basis Set:
  @DF-RHF Final Energy:  -501.21352213487171
    Total Energy =                       -501.2135221348710274
    Molecular point group: c1
  Basis Set: CC-PVTZ
  Basis Set:
  Basis Set: CC-PVTZ
  Basis Set:
  @DF-RHF Final Energy:  -501.21877559282018
    Total Energy =                       -501.2187755928200659
  Basis Set: CC-PVTZ
  Basis Set:
  Basis Set: CC-PVTZ
  Basis Set:
  @DF-RHF Final Energy:  -501.21962040553888
    Total Energy =                       -501.2196204055392172
  Basis Set: CC-PVTZ
  Basis Set:
  Basis Set: CC-PVTZ
  Basis Set:
  @DF-RHF Final Energy:  -501.21982636710425
    Total Energy =                       -501.2198263671040195
  Basis Set: CC-PVTZ
  Basis Set:
  @DF-RHF Final Energy:  -501.21940214480242
    Total Energy =                       -501.2194021448020749
  @DF-RHF Final Energy:  -501.21988720201932
    Total Energy =                       -501.2198872020187537
  @DF-RHF Final Energy:  -501.21989873180564
    Total Energy =                       -501.2198987318058698
  Basis Set: CC-PVTZ
  Basis Set:
  @DF-RHF Final Energy:  -501.21990850470536
    Total Energy =                       -501.2199085047054723
  Basis Set: CC-PVTZ
  Basis Set:
  Basis Set: CC-PVTZ
  Basis Set:
  @DF-RHF Final Energy:  -501.21991275592131
    Total Energy =                       -501.2199127559223371
  Basis Set: CC-PVTZ
  Basis Set:
  Basis Set: CC-PVTZ
  Basis Set:
  @DF-RHF Final Energy:  -501.21991607005111
    Total Energy =                       -501.2199160700509992
  Basis Set: CC-PVTZ
  Basis Set:
  Charge       = 0
  Multiplicity = 1
  Basis Set: CC-PVTZ
  Basis Set:

    Orbital Energies (a.u.)
    -----------------------

    Doubly Occupied:

       1A    -20.595931     2A    -20.533788     3A    -11.364012
       4A    -11.278199     5A    -11.232325     6A    -11.217122
       7A    -11.216161     8A    -11.214535     9A    -11.214097
      10A    -11.213156    11A    -11.207914    12A     -1.471816
      13A     -1.365378    14A     -1.097473    15A     -1.067016
      16A     -1.020642    17A     -0.977501    18A     -0.932636
      19A     -0.863597    20A     -0.805483    21A     -0.783660
      22A     -0.766268    23A     -0.701299    24A     -0.685689
      25A     -0.675596    26A     -0.651110    27A     -0.627255
      28A     -0.607759    29A     -0.595638    30A     -0.578723
      31A     -0.567000    32A     -0.560521    33A     -0.537748
      34A     -0.527812    35A     -0.521482    36A     -0.501888
      37A     -0.496904    38A     -0.483026    39A     -0.472570
      40A     -0.462961    41A     -0.460059    42A     -0.458324
      43A     -0.438764    44A     -0.436576

  @DF-RHF Final Energy:  -501.21991616683204

   => Energetics <=

    Nuclear Repulsion Energy =            624.2625913067358852
    One-Electron Energy =               -1919.9901904970165560
    Two-Electron Energy =                 794.5076830234489762
    DFT Exchange-Correlation Energy =       0.0000000000000000
    Empirical Dispersion Energy =           0.0000000000000000
    PCM Polarization Energy =               0.0000000000000000
    EFP Energy =                            0.0000000000000000
    Total Energy =                       -501.2199161668316947
    Molecular point group: c1
  Basis Set: CC-PVTZ
  Basis Set:

  -Total Gradient:
     Atom            X                  Y                   Z
    ------   -----------------  -----------------  -----------------
       1        0.000019106766    -0.000026016107     0.000010968342
       2        0.000014448316    -0.000024635945     0.000018422543
       3       -0.000008301434    -0.000003538864    -0.000003783475
       4       -0.000015900867     0.000040701633    -0.000028678315
       5       -0.000088368460     0.000239118056    -0.000212702823
       6       -0.000000452741     0.000007799454     0.000006254943
       7       -0.000000923709     0.000003037841    -0.000011326068
       8        0.000128279115    -0.000283719586     0.000242009779
       9       -0.000003634086    -0.000000392978     0.000005778629
      10        0.000001679278    -0.000006145637    -0.000002369038
      11       -0.000049176683    -0.000187020343     0.000348584426
      12        0.000000968745     0.000004571651     0.000003364824
      13        0.000001357609    -0.000001238929    -0.000006578114
      14       -0.000006506646    -0.000014371818    -0.000004806370
      15        0.000001134730     0.000242730846    -0.000377147193
      16       -0.000001184983     0.000003514550     0.000002683086
      17       -0.000001083834    -0.000003780633     0.000012962705
      18       -0.000004745270    -0.000000547953     0.000001268218
      19        0.000005789183    -0.000001860153     0.000002462570
      20        0.000003939318     0.000005052233    -0.000007442149
      21       -0.000005007612     0.000003741820     0.000001108304
      22        0.000000204524     0.000000825303    -0.000002020297
      23        0.000000571144     0.000000529785    -0.000001587797
      24       -0.000001957969     0.000000817741     0.000002766332
      25        0.000004997932    -0.000004633886     0.000000079919
      26        0.000022149331     0.000003585107    -0.000002584723
      27       -0.000008136849     0.000000505383     0.000006031702
      28       -0.000003282213     0.000004539934    -0.000002625583
      29       -0.000005962629    -0.000003168506    -0.000001094377

  **** Optimization is complete! (in 11 steps) ****
    Final optimized geometry and variables:
    Molecular point group: c1

    Geometry (in Angstrom), charge = 0, multiplicity = 1:

    O            2.683723639697     1.536140311935    -0.722246188308
    C            2.249239777487     0.647479732371    -0.072188581874
    C            0.813152272217     0.496349567396     0.362791543634
    O            2.990977507751    -0.355783102699     0.368917900203
    C           -0.089292693639     1.615290436489    -0.144443357081
    H            0.488939886992    -0.481056915192     0.033205845570
    H            0.813148644469     0.458277717955     1.447479214634
    C           -1.522308513343     1.608439603212     0.402720432921
    H           -0.111619657019     1.598056005527    -1.228684495729
    H            0.372352865619     2.557177033791     0.124474914228
    C           -2.518706504312     0.627448416284    -0.229382238886
    H           -1.918702960842     2.606401064207     0.247481101917
    H           -1.502942687270     1.463220130794     1.480544496149
    C           -2.430872019783    -0.831312394325     0.218273125694
    H           -3.518395135750     0.985771013331     0.000068502464
    H           -2.428772861135     0.678425248562    -1.311892611916
    C           -3.580175191161    -1.682712089787    -0.316245198733
    H           -2.430931320875    -0.874747920184     1.305055865236
    H           -1.495314605056    -1.273883735819    -0.104832496156
    C           -3.494653844744    -3.143626914829     0.112846924469
    H           -4.523852400503    -1.263086634488     0.020955086443
    H           -3.593278905532    -1.626574409882    -1.401408709122
    H           -4.325921766628    -3.717732665161    -0.279992953569
    H           -3.511110605439    -3.235663516885     1.193831607059
    H           -2.578537155632    -3.603728218581    -0.242541064703
    C            4.364791663342    -0.341422020154     0.038252703283
    H            4.499467404270    -0.361855688845    -1.033037736171
    H            4.787431101115    -1.227512553753     0.483366601694
    H            4.843831164328     0.540626410525     0.436716921765

  Mulliken Charges: (a.u.)
   Center  Symbol    Alpha    Beta     Spin     Total
       1     O     4.19669  4.19669  0.00000 -0.39338
       2     C     2.80654  2.80654  0.00000  0.38693
       3     C     3.10309  3.10309  0.00000 -0.20618
       4     O     4.14748  4.14748  0.00000 -0.29496
       5     C     3.08876  3.08876  0.00000 -0.17752
       6     H     0.43778  0.43778  0.00000  0.12444
       7     H     0.43895  0.43895  0.00000  0.12209
       8     C     3.11068  3.11068  0.00000 -0.22136
       9     H     0.44743  0.44743  0.00000  0.10514
      10     H     0.43899  0.43899  0.00000  0.12202
      11     C     3.09413  3.09413  0.00000 -0.18826
      12     H     0.44150  0.44150  0.00000  0.11700
      13     H     0.45388  0.45388  0.00000  0.09223
      14     C     3.09373  3.09373  0.00000 -0.18745
      15     H     0.44824  0.44824  0.00000  0.10352
      16     H     0.45232  0.45232  0.00000  0.09537
      17     C     3.08457  3.08457  0.00000 -0.16914
      18     H     0.45310  0.45310  0.00000  0.09380
      19     H     0.45413  0.45413  0.00000  0.09174
      20     C     3.14999  3.14999  0.00000 -0.29998
      21     H     0.45327  0.45327  0.00000  0.09345
      22     H     0.45394  0.45394  0.00000  0.09213
      23     H     0.44769  0.44769  0.00000  0.10461
      24     H     0.45504  0.45504  0.00000  0.08993
      25     H     0.45570  0.45570  0.00000  0.08859
      26     C     3.03871  3.03871  0.00000 -0.07743
      27     H     0.45441  0.45441  0.00000  0.09118
      28     H     0.44524  0.44524  0.00000  0.10952
      29     H     0.45402  0.45402  0.00000  0.09196

   Total alpha = 44.00000, Total beta = 44.00000, Total charge =  0.00000

*** Psi4 exiting successfully. Buy a developer a beer!
