  ==> Input File <==

--------------------------------------------------------------------------
set {
	reference rhf
	basis 6-31G*
}

set_num_threads( 4 )
memory 2 gb

molecule MOL {
0 1

H	 -3.021103	 -1.320899	 0.215744
O	 -2.196288	 -0.982083	 -0.101524
C	 -2.026376	 0.340750	 0.341611
C	 -0.673256	 0.843270	 -0.132153
H	 -2.814278	 0.977990	 -0.055970
H	 -2.081528	 0.389781	 1.428445
C	 0.486613	 -0.083066	 0.235839
H	 -0.715586	 0.970948	 -1.210718
H	 -0.508072	 1.829858	 0.297090
C	 1.840406	 0.433480	 -0.254303
H	 0.300215	 -1.068318	 -0.178947
H	 0.519509	 -0.203625	 1.318070
C	 3.000220	 -0.489290	 0.118523
H	 1.809207	 0.553576	 -1.335192
H	 2.021860	 1.424500	 0.157276
H	 2.864959	 -1.479103	 -0.307933
H	 3.946603	 -0.099227	 -0.243630
H	 3.080049	 -0.602997	 1.196117

	symmetry c1
}
set optking {
	frozen_dihedral = ("
		2 3 4 8
	")
}

ee = optimize('scf')
oeprop('DIPOLE', 'QUADRUPOLE', 'MULLIKEN_CHARGES')
f=open( 'psi4out.xyz', 'w' )
f.write( "18  " )
f.write( str(ee) + "\n" )
f.write( MOL.save_string_xyz() )
f.close()
--------------------------------------------------------------------------

    Molecular point group: c1
  Charge       = 0
  Multiplicity = 1
  Basis Set: 6-31G*
  Basis Set:
  @DF-RHF Final Energy:  -271.17924664659029
    Total Energy =                       -271.1792466465905704
    Molecular point group: c1
  Basis Set: 6-31G*
  Basis Set:
  Basis Set: 6-31G*
  Basis Set:
  @DF-RHF Final Energy:  -271.17935256747148
    Total Energy =                       -271.1793525674714829
  Basis Set: 6-31G*
  Basis Set:
  Basis Set: 6-31G*
  Basis Set:
  @DF-RHF Final Energy:  -271.17940571909162
    Total Energy =                       -271.1794057190916760
  Basis Set: 6-31G*
  Basis Set:
  Charge       = 0
  Multiplicity = 1
  Basis Set: 6-31G*
  Basis Set:

    Orbital Energies (a.u.)
    -----------------------

    Doubly Occupied:

       1A    -20.553032     2A    -11.268280     3A    -11.212303
       4A    -11.210271     5A    -11.205536     6A    -11.204066
       7A     -1.359881     8A     -1.074163     9A     -1.008356
      10A     -0.913244    11A     -0.817354    12A     -0.783142
      13A     -0.703437    14A     -0.645842    15A     -0.622376
      16A     -0.579775    17A     -0.571523    18A     -0.555937
      19A     -0.521519    20A     -0.501528    21A     -0.488004
      22A     -0.466519    23A     -0.457034    24A     -0.445938
      25A     -0.429958

  @DF-RHF Final Energy:  -271.17940644341388

   => Energetics <=

    Nuclear Repulsion Energy =            249.3291769682778920
    One-Electron Energy =                -861.8191338810595425
    Two-Electron Energy =                 341.3105504693677403
    DFT Exchange-Correlation Energy =       0.0000000000000000
    Empirical Dispersion Energy =           0.0000000000000000
    PCM Polarization Energy =               0.0000000000000000
    EFP Energy =                            0.0000000000000000
    Total Energy =                       -271.1794064434138818
    Molecular point group: c1
  Basis Set: 6-31G*
  Basis Set:

  -Total Gradient:
     Atom            X                  Y                   Z
    ------   -----------------  -----------------  -----------------
       1       -0.000011024056    -0.000015806277     0.000000707420
       2        0.000899382785    -0.000735871811     0.001835266916
       3       -0.001378973760     0.001631071749    -0.002277094995
       4        0.001305736369    -0.003604125222     0.000157922545
       5       -0.000000767907    -0.000032887227    -0.000013836547
       6       -0.000001597977    -0.000004972560     0.000001226292
       7       -0.000014141104    -0.000022294870    -0.000052811218
       8       -0.000775918584     0.002713204537     0.000400129928
       9       -0.000003382608     0.000063180462    -0.000016774718
      10       -0.000015088667     0.000013203779    -0.000012057429
      11       -0.000019878325    -0.000002779957    -0.000009224774
      12       -0.000000985594    -0.000010362077    -0.000034213218
      13        0.000016780126     0.000018256920     0.000034092552
      14        0.000007324569    -0.000030296172    -0.000000528463
      15       -0.000014339888     0.000013809817    -0.000029502695
      16       -0.000004009112     0.000014907277    -0.000004367715
      17        0.000008048849     0.000003828796     0.000013918396
      18        0.000002834886    -0.000012067163     0.000007147723

  **** Optimization is complete! (in 4 steps) ****
    Final optimized geometry and variables:
    Molecular point group: c1

    Geometry (in Angstrom), charge = 0, multiplicity = 1:

    H           -3.094461480203    -1.261381427279     0.188853321715
    O           -2.255699238086    -0.955591129688    -0.125415437899
    C           -2.040887797198     0.362784197072     0.310510572338
    C           -0.688290216861     0.841756271744    -0.192218307650
    H           -2.824031513031     1.022434106926    -0.058244974735
    H           -2.061678028696     0.405267218875     1.398988823431
    C            0.474511379390    -0.077337546000     0.180256453769
    H           -0.738607037966     0.976572213531    -1.269821550209
    H           -0.518270043358     1.833336545106     0.225365322332
    C            1.827783167448     0.459277292828    -0.289700290220
    H            0.303645114370    -1.060801237468    -0.243542510900
    H            0.495318160991    -0.207263596764     1.261566962958
    C            2.993497228602    -0.453685237049     0.088961391454
    H            1.808107480894     0.588095524868    -1.369924080734
    H            1.993532838122     1.448766628210     0.132063826410
    H            2.874792169591    -1.441032099011    -0.348035982462
    H            3.939765659845    -0.049589956114    -0.257795806106
    H            3.061240154490    -0.576474981204     1.166355892869

  Mulliken Charges: (a.u.)
   Center  Symbol    Alpha    Beta     Spin     Total
       1     H     0.28052  0.28052  0.00000  0.43895
       2     O     4.36950  4.36950  0.00000 -0.73899
       3     C     2.99609  2.99609  0.00000  0.00781
       4     C     3.16199  3.16199  0.00000 -0.32398
       5     H     0.42930  0.42930  0.00000  0.14140
       6     H     0.43272  0.43272  0.00000  0.13456
       7     C     3.15102  3.15102  0.00000 -0.30205
       8     H     0.41701  0.41701  0.00000  0.16597
       9     H     0.42456  0.42456  0.00000  0.15088
      10     C     3.15209  3.15209  0.00000 -0.30417
      11     H     0.40679  0.40679  0.00000  0.18642
      12     H     0.42711  0.42711  0.00000  0.14577
      13     C     3.23882  3.23882  0.00000 -0.47764
      14     H     0.42298  0.42298  0.00000  0.15404
      15     H     0.42548  0.42548  0.00000  0.14903
      16     H     0.42087  0.42087  0.00000  0.15826
      17     H     0.42056  0.42056  0.00000  0.15889
      18     H     0.42257  0.42257  0.00000  0.15486

   Total alpha = 25.00000, Total beta = 25.00000, Total charge =  0.00000
