                              Psi4 1.0.54 Driver

  ==> Input File <==

--------------------------------------------------------------------------
set {
	reference rhf
	basis cc-pvtz
}

set_num_threads( 4 )
memory 2 gb

molecule MOL {
0 1

O	 -0.988175	 -1.402891	 0.050086
C	 -0.675048	 -0.248293	 -0.009686
C	 -1.742492	 0.826599	 -0.011538
N	 0.622280	 0.144970	 -0.099307
H	 -1.692153	 1.431066	 -0.908439
H	 -2.698310	 0.331559	 0.031353
H	 -1.642148	 1.483784	 0.843455
C	 0.919391	 1.558899	 -0.191392
C	 1.710706	 -0.738066	 -0.444749
H	 1.811230	 1.778704	 0.382656
H	 0.094970	 2.127508	 0.198729
H	 1.093931	 1.859544	 -1.221333
H	 2.609250	 -0.410377	 0.062078
H	 1.514931	 -1.751026	 -0.137371
H	 1.911848	 -0.735684	 -1.513665

	symmetry c1
}
set optking {
	frozen_dihedral = ("
		8 4 2 3
	")
}

ee,wfn = optimize('scf', return_wfn=True)
oeprop( wfn, 'DIPOLE', 'QUADRUPOLE', 'MULLIKEN_CHARGES')
f=open( 'psi4out.xyz', 'w' )
f.write( "15  " )
f.write( str(ee) + "\n" )
f.write( MOL.save_string_xyz() )
f.close()
--------------------------------------------------------------------------

    Molecular point group: c1
  Charge       = 0
  Multiplicity = 1
  Basis Set: CC-PVTZ
  Basis Set:
  @DF-RHF Final Energy:  -286.13085195460673
    Total Energy =                       -286.1308519546067259
    Molecular point group: c1
  Basis Set: CC-PVTZ
  Basis Set:
  Basis Set: CC-PVTZ
  Basis Set:
  @DF-RHF Final Energy:  -286.13232396397365
    Total Energy =                       -286.1323239639738745
  Basis Set: CC-PVTZ
  Basis Set:
  Basis Set: CC-PVTZ
  Basis Set:
  @DF-RHF Final Energy:  -286.13490711137410
    Total Energy =                       -286.1349071113739342
  Basis Set: CC-PVTZ
  Basis Set:
  Basis Set: CC-PVTZ
  Basis Set:
  @DF-RHF Final Energy:  -286.13518371734250
    Total Energy =                       -286.1351837173421586
  Basis Set: CC-PVTZ
  Basis Set:
  @DF-RHF Final Energy:  -286.13522708657763
    Total Energy =                       -286.1352270865775154
  @DF-RHF Final Energy:  -286.13531265197446
    Total Energy =                       -286.1353126519743455
  @DF-RHF Final Energy:  -286.13535183487312
    Total Energy =                       -286.1353518348730631
  @DF-RHF Final Energy:  -286.13537124651361
    Total Energy =                       -286.1353712465137846
  @DF-RHF Final Energy:  -286.13538763870878
    Total Energy =                       -286.1353876387090622
  @DF-RHF Final Energy:  -286.13543120079032
    Total Energy =                       -286.1354312007907197
  @DF-RHF Final Energy:  -286.13548802976686
    Total Energy =                       -286.1354880297669752
  @DF-RHF Final Energy:  -286.13552461990474
    Total Energy =                       -286.1355246199047997
  @DF-RHF Final Energy:  -286.13556359194672
    Total Energy =                       -286.1355635919470615
  @DF-RHF Final Energy:  -286.13556567492719
    Total Energy =                       -286.1355656749271930
  @DF-RHF Final Energy:  -286.13556743960532
    Total Energy =                       -286.1355674396054383
  Basis Set: CC-PVTZ
  Basis Set:
  @DF-RHF Final Energy:  -286.13556868316357
    Total Energy =                       -286.1355686831635126
  Basis Set: CC-PVTZ
  Basis Set:
  Basis Set: CC-PVTZ
  Basis Set:
  @DF-RHF Final Energy:  -286.13556981508088
    Total Energy =                       -286.1355698150811691
  Basis Set: CC-PVTZ
  Basis Set:
  Basis Set: CC-PVTZ
  Basis Set:
  @DF-RHF Final Energy:  -286.13557244696824
    Total Energy =                       -286.1355724469682400
  Basis Set: CC-PVTZ
  Basis Set:
  Charge       = 0
  Multiplicity = 1
  Basis Set: CC-PVTZ
  Basis Set:

    Orbital Energies (a.u.)
    -----------------------

    Doubly Occupied:

       1A    -20.501769     2A    -15.579125     3A    -11.335473
       4A    -11.264204     5A    -11.246419     6A    -11.226441
       7A     -1.386139     8A     -1.246794     9A     -1.015065
      10A     -0.973674    11A     -0.922001    12A     -0.739790
      13A     -0.683437    14A     -0.662281    15A     -0.653985
      16A     -0.591288    17A     -0.577888    18A     -0.566352
      19A     -0.560902    20A     -0.548996    21A     -0.530602
      22A     -0.507702    23A     -0.412599    24A     -0.369417

  @DF-RHF Final Energy:  -286.13557304443873

   => Energetics <=

    Nuclear Repulsion Energy =            252.7517469607609257
    One-Electron Energy =                -889.5699567237629708
    Two-Electron Energy =                 350.6826367185634581
    DFT Exchange-Correlation Energy =       0.0000000000000000
    Empirical Dispersion Energy =           0.0000000000000000
    PCM Polarization Energy =               0.0000000000000000
    EFP Energy =                            0.0000000000000000
    Total Energy =                       -286.1355730444386154
    Molecular point group: c1
  Basis Set: CC-PVTZ
  Basis Set:

  -Total Gradient:
     Atom            X                  Y                   Z
    ------   -----------------  -----------------  -----------------
       1        0.000001845869     0.000005392529     0.000005791472
       2        0.000053807992    -0.000002710107     0.000231996885
       3       -0.000027692949    -0.000000978536    -0.000099177997
       4       -0.000050895940    -0.000001828604    -0.000249201821
       5        0.000002527762     0.000002429838    -0.000003079816
       6        0.000000989549     0.000000124164    -0.000006462076
       7       -0.000004984814    -0.000003904208    -0.000002306149
       8        0.000016321796    -0.000006279567     0.000114771516
       9       -0.000004617815     0.000007474188     0.000016150156
      10        0.000011497343    -0.000006227015    -0.000010290173
      11        0.000008270179     0.000001929933     0.000013868277
      12       -0.000010726877     0.000006332784    -0.000007994459
      13       -0.000001166521    -0.000004117338     0.000004245303
      14       -0.000001164249    -0.000001234823    -0.000007337592
      15        0.000005988672     0.000003596757    -0.000000973525

  **** Optimization is complete! (in 19 steps) ****
    Final optimized geometry and variables:
    Molecular point group: c1

    Geometry (in Angstrom), charge = 0, multiplicity = 1:

    O           -0.928892229070    -1.430777510362     0.230866617286
    C           -0.652100681363    -0.266746614449     0.161089833101
    C           -1.722198636776     0.776632661558     0.412462214516
    N            0.598997294857     0.160910315533    -0.139501621289
    H           -1.857375839220     1.422303648273    -0.446082846835
    H           -2.641064633168     0.250355788395     0.610101733697
    H           -1.476720868355     1.396020633641     1.266159319603
    C            1.006823513600     1.539998274777    -0.242516405709
    C            1.642357353496    -0.804470662319    -0.407609740561
    H            1.848514819397     1.731425239187     0.415052558006
    H            0.214776657458     2.214466766247     0.029439821888
    H            1.317843205923     1.774843815280    -1.256149689167
    H            2.453742923801    -0.691691788747     0.304469653619
    H            1.241919228788    -1.798629053841    -0.332181383835
    H            2.044912524926    -0.656289039942    -1.404790855630

  Mulliken Charges: (a.u.)
   Center  Symbol    Alpha    Beta     Spin     Total
       1     O     4.22310  4.22310  0.00000 -0.44620
       2     C     2.84780  2.84780  0.00000  0.30441
       3     C     3.15992  3.15992  0.00000 -0.31984
       4     N     3.55717  3.55717  0.00000 -0.11434
       5     H     0.44987  0.44987  0.00000  0.10026
       6     H     0.42835  0.42835  0.00000  0.14330
       7     H     0.44978  0.44978  0.00000  0.10045
       8     C     3.09337  3.09337  0.00000 -0.18673
       9     C     3.10091  3.10091  0.00000 -0.20183
      10     H     0.45275  0.45275  0.00000  0.09450
      11     H     0.44489  0.44489  0.00000  0.11022
      12     H     0.45317  0.45317  0.00000  0.09366
      13     H     0.45677  0.45677  0.00000  0.08647
      14     H     0.42470  0.42470  0.00000  0.15059
      15     H     0.45746  0.45746  0.00000  0.08507

   Total alpha = 24.00000, Total beta = 24.00000, Total charge = -0.00000

*** Psi4 exiting successfully. Buy a developer a beer!
