  ==> Input File <==

--------------------------------------------------------------------------
set {
	reference rhf
	basis 6-31G*
}

set_num_threads( 4 )
memory 2 gb

molecule MOL {
0 1

H	 -1.795853	 0.044724	 -0.797240
N	 -1.172117	 -0.314371	 -0.100254
C	 -0.024542	 0.565565	 0.069209
H	 -1.695252	 -0.376684	 0.752697
C	 1.271298	 -0.229563	 -0.014192
H	 -0.049409	 1.297310	 -0.731596
H	 -0.046881	 1.125219	 1.006750
H	 1.332152	 -0.753033	 -0.961461
H	 2.134169	 0.422483	 0.080702
H	 1.326077	 -0.968298	 0.781395

	symmetry c1
}
set optking {
	frozen_dihedral = ("
		1 2 3 6
	")
}

ee = optimize('scf')
oeprop('DIPOLE', 'QUADRUPOLE', 'MULLIKEN_CHARGES')
f=open( 'psi4out.xyz', 'w' )
f.write( "10  " )
f.write( str(ee) + "\n" )
f.write( MOL.save_string_xyz() )
f.close()
--------------------------------------------------------------------------

    Molecular point group: c1
  Charge       = 0
  Multiplicity = 1
  Basis Set: 6-31G*
  Basis Set:
  @DF-RHF Final Energy:  -134.24388464605289
    Total Energy =                       -134.2438846460529476
    Molecular point group: c1
  Basis Set: 6-31G*
  Basis Set:
  Basis Set: 6-31G*
  Basis Set:
  @DF-RHF Final Energy:  -134.24435803465082
    Total Energy =                       -134.2443580346508156
  Basis Set: 6-31G*
  Basis Set:
  Basis Set: 6-31G*
  Basis Set:
  @DF-RHF Final Energy:  -134.24452723716465
    Total Energy =                       -134.2445272371645615
  Basis Set: 6-31G*
  Basis Set:
  Basis Set: 6-31G*
  Basis Set:
  @DF-RHF Final Energy:  -134.24453102054372
    Total Energy =                       -134.2445310205437181
  Basis Set: 6-31G*
  Basis Set:
  Charge       = 0
  Multiplicity = 1
  Basis Set: 6-31G*
  Basis Set:

    Orbital Energies (a.u.)
    -----------------------

    Doubly Occupied:

       1A    -15.530315     2A    -11.242945     3A    -11.199593
       4A     -1.171902     5A     -0.984860     6A     -0.820246
       7A     -0.671855     8A     -0.622733     9A     -0.569219
      10A     -0.524490    11A     -0.509637    12A     -0.476924
      13A     -0.377568

  @DF-RHF Final Energy:  -134.24453162862500

   => Energetics <=

    Nuclear Repulsion Energy =             83.0459605895223945
    One-Electron Energy =                -345.1764089797800352
    Two-Electron Energy =                 127.8859167616326431
    DFT Exchange-Correlation Energy =       0.0000000000000000
    Empirical Dispersion Energy =           0.0000000000000000
    PCM Polarization Energy =               0.0000000000000000
    EFP Energy =                            0.0000000000000000
    Total Energy =                       -134.2445316286249977
    Molecular point group: c1
  Basis Set: 6-31G*
  Basis Set:

  -Total Gradient:
     Atom            X                  Y                   Z
    ------   -----------------  -----------------  -----------------
       1        0.000917044406    -0.000957814538    -0.001346891835
       2       -0.001401506947     0.001417324916     0.001925327462
       3        0.001404955218    -0.001534994297    -0.001577163188
       4       -0.000002086883    -0.000004762417     0.000003847130
       5       -0.000022522091     0.000028064209     0.000013541287
       6       -0.000898271319     0.001040894749     0.000988269257
       7        0.000010204688     0.000004929626     0.000012813396
       8       -0.000002962108     0.000001084067     0.000002000895
       9        0.000007210222    -0.000010557264    -0.000011906706
      10       -0.000012065187     0.000015830948    -0.000009837699

  **** Optimization is complete! (in 5 steps) ****
    Final optimized geometry and variables:
    Molecular point group: c1

    Geometry (in Angstrom), charge = 0, multiplicity = 1:

    H           -1.826109056743     0.039147893566    -0.755959109198
    N           -1.179896519870    -0.313041473953    -0.080689478400
    C           -0.012507585343     0.553856086587     0.064850823123
    H           -1.669387956848    -0.434059996215     0.781876843065
    C            1.283846491013    -0.244524630923     0.005932225835
    H           -0.020071812706     1.301640480184    -0.722451268337
    H           -0.050226940182     1.110529229629     0.999772492620
    H            1.361041682182    -0.770750240713    -0.939144148905
    H            2.149281484918     0.404231076460     0.114574043951
    H            1.311753578115    -0.984387204363     0.799657385008

  Mulliken Charges: (a.u.)
   Center  Symbol    Alpha    Beta     Spin     Total
       1     H     0.33041  0.33041  0.00000  0.33917
       2     N     3.92715  3.92715  0.00000 -0.85430
       3     C     3.06741  3.06741  0.00000 -0.13481
       4     H     0.33119  0.33119  0.00000  0.33761
       5     C     3.22514  3.22514  0.00000 -0.45028
       6     H     0.42367  0.42367  0.00000  0.15265
       7     H     0.42775  0.42775  0.00000  0.14450
       8     H     0.41758  0.41758  0.00000  0.16484
       9     H     0.42824  0.42824  0.00000  0.14353
      10     H     0.42145  0.42145  0.00000  0.15709

   Total alpha = 13.00000, Total beta = 13.00000, Total charge = -0.00000
