                              Psi4 1.0.54 Driver

  ==> Input File <==

--------------------------------------------------------------------------
set {
	reference rhf
	basis cc-pvtz
}

set_num_threads( 4 )
memory 2 gb

molecule MOL {
0 1

H	 3.459101	 0.139266	 -0.762951
C	 2.749156	 -0.051729	 0.031265
C	 1.322304	 0.099773	 -0.484271
H	 2.929445	 -1.053887	 0.403481
H	 2.954281	 0.646699	 0.834672
C	 0.308557	 -0.162619	 0.622645
H	 1.143368	 -0.594400	 -1.295960
H	 1.169532	 1.100095	 -0.870217
N	 -1.069352	 -0.004081	 0.085342
H	 0.371632	 -1.172932	 0.991288
H	 0.400391	 0.548875	 1.426218
O	 -1.886514	 -0.781129	 0.450060
O	 -1.250849	 0.870669	 -0.693640

	symmetry c1
}
set optking {
	frozen_dihedral = ("
		12 9 6 3
	")
}

ee,wfn = optimize('scf', return_wfn=True)
oeprop( wfn, 'DIPOLE', 'QUADRUPOLE', 'MULLIKEN_CHARGES')
f=open( 'psi4out.xyz', 'w' )
f.write( "13  " )
f.write( str(ee) + "\n" )
f.write( MOL.save_string_xyz() )
f.close()
--------------------------------------------------------------------------

    Molecular point group: c1
  Charge       = 0
  Multiplicity = 1
  Basis Set: CC-PVTZ
  Basis Set:
  @DF-RHF Final Energy:  -321.85985798373224
    Total Energy =                       -321.8598579837318994
    Molecular point group: c1
  Basis Set: CC-PVTZ
  Basis Set:
  Basis Set: CC-PVTZ
  Basis Set:
  @DF-RHF Final Energy:  -321.50669401726987
    Total Energy =                       -321.5066940172697514
  Basis Set: CC-PVTZ
  Basis Set:
  Basis Set: CC-PVTZ
  Basis Set:
  @DF-RHF Final Energy:  -321.66827976365801
    Total Energy =                       -321.6682797636579494
  Basis Set: CC-PVTZ
  Basis Set:
  Basis Set: CC-PVTZ
  Basis Set:
  @DF-RHF Final Energy:  -321.81709091108928
    Total Energy =                       -321.8170909110891671
  Basis Set: CC-PVTZ
  Basis Set:
  @DF-RHF Final Energy:  -321.84517357850041
    Total Energy =                       -321.8451735785003507
  @DF-RHF Final Energy:  -321.85908758526364
    Total Energy =                       -321.8590875852638078
  @DF-RHF Final Energy:  -321.54513330051270
    Total Energy =                       -321.5451333005127026
  @DF-RHF Final Energy:  -321.74459490998424
    Total Energy =                       -321.7445949099843574
  @DF-RHF Final Energy:  -321.84330642200251
    Total Energy =                       -321.8433064220027404
  @DF-RHF Final Energy:  -321.59835168810650
    Total Energy =                       -321.5983516881064475
  @DF-RHF Final Energy:  -321.79554402028975
    Total Energy =                       -321.7955440202895829
  @DF-RHF Final Energy:  -321.85683701904520
    Total Energy =                       -321.8568370190452583
  @DF-RHF Final Energy:  -321.85867601594009
    Total Energy =                       -321.8586760159400342
  Basis Set: CC-PVTZ
  Basis Set:
  @DF-RHF Final Energy:  -321.86063514412842
    Total Energy =                       -321.8606351441283664
  Basis Set: CC-PVTZ
  Basis Set:
  Basis Set: CC-PVTZ
  Basis Set:
  @DF-RHF Final Energy:  -321.86089139815556
    Total Energy =                       -321.8608913981558430
  Basis Set: CC-PVTZ
  Basis Set:
  Basis Set: CC-PVTZ
  Basis Set:
  @DF-RHF Final Energy:  -321.86090100004395
    Total Energy =                       -321.8609010000441799
  Basis Set: CC-PVTZ
  Basis Set:
  Charge       = 0
  Multiplicity = 1
  Basis Set: CC-PVTZ
  Basis Set:

    Orbital Energies (a.u.)
    -----------------------

    Doubly Occupied:

       1A    -20.591433     2A    -20.590284     3A    -15.837953
       4A    -11.298406     5A    -11.249396     6A    -11.235643
       7A     -1.636975     8A     -1.421024     9A     -1.132385
      10A     -1.027189    11A     -0.884660    12A     -0.829674
      13A     -0.763610    14A     -0.745629    15A     -0.730215
      16A     -0.664216    17A     -0.605738    18A     -0.581802
      19A     -0.551803    20A     -0.522237    21A     -0.510322
      22A     -0.487611    23A     -0.474385    24A     -0.454519

  @DF-RHF Final Energy:  -321.86090190145853

   => Energetics <=

    Nuclear Repulsion Energy =            247.6863567443128034
    One-Electron Energy =                -929.4403014670465382
    Two-Electron Energy =                 359.8930428212754578
    DFT Exchange-Correlation Energy =       0.0000000000000000
    Empirical Dispersion Energy =           0.0000000000000000
    PCM Polarization Energy =               0.0000000000000000
    EFP Energy =                            0.0000000000000000
    Total Energy =                       -321.8609019014583055
    Molecular point group: c1
  Basis Set: CC-PVTZ
  Basis Set:

  -Total Gradient:
     Atom            X                  Y                   Z
    ------   -----------------  -----------------  -----------------
       1       -0.000018865432     0.000005878915    -0.000013339766
       2        0.000003533875     0.000017628032    -0.000001472567
       3        0.000378482924    -0.000075182595     0.000123833600
       4        0.000013006049     0.000007640539    -0.000001876686
       5       -0.000010741583    -0.000008630338     0.000003179188
       6       -0.000387109197    -0.000008982720    -0.000150319448
       7        0.000010829692    -0.000021038106     0.000000505829
       8        0.000004201350    -0.000010089779     0.000010999239
       9       -0.000277660075     0.000497128264     0.000100966438
      10        0.000006056447    -0.000006251887     0.000020319854
      11        0.000011764505     0.000020199990    -0.000013556601
      12        0.000383660822    -0.000306754824     0.000112586909
      13       -0.000117159378    -0.000111545489    -0.000191825990

  **** Optimization is complete! (in 17 steps) ****
    Final optimized geometry and variables:
    Molecular point group: c1

    Geometry (in Angstrom), charge = 0, multiplicity = 1:

    H            1.430911357434     2.515478535792    -2.102801794986
    C            1.196398468260     1.461943436818    -2.023932020774
    C            0.541422840076     1.163462579840    -0.678739590980
    H            0.543524239396     1.205315472391    -2.850662695376
    H            2.120701380768     0.907513330592    -2.143922211968
    C            0.203914580952    -0.312013164827    -0.561104228815
    H           -0.366673386242     1.746068401990    -0.572538173308
    H            1.197571360308     1.446771452666     0.130951562069
    N           -0.464494787356    -0.645961139535     0.730350043544
    H           -0.469292542588    -0.652233147079    -1.328974808286
    H            1.095058415799    -0.925015294519    -0.572583696705
    O           -1.354849320170    -1.426268994944     0.689196680188
    O           -0.045078104654    -0.137229819240     1.714852955279

  Mulliken Charges: (a.u.)
   Center  Symbol    Alpha    Beta     Spin     Total
       1     H     0.44142  0.44142  0.00000  0.11715
       2     C     3.15188  3.15188  0.00000 -0.30376
       3     C     3.09459  3.09459  0.00000 -0.18919
       4     H     0.45245  0.45245  0.00000  0.09511
       5     H     0.45258  0.45258  0.00000  0.09484
       6     C     3.04253  3.04253  0.00000 -0.08506
       7     H     0.44372  0.44372  0.00000  0.11256
       8     H     0.43351  0.43351  0.00000  0.13297
       9     N     3.27584  3.27584  0.00000  0.44832
      10     H     0.43178  0.43178  0.00000  0.13643
      11     H     0.43721  0.43721  0.00000  0.12558
      12     O     4.17012  4.17012  0.00000 -0.34023
      13     O     4.17236  4.17236  0.00000 -0.34472

   Total alpha = 24.00000, Total beta = 24.00000, Total charge =  0.00000

*** Psi4 exiting successfully. Buy a developer a beer!
