  ==> Input File <==

--------------------------------------------------------------------------
set {
	reference rhf
	basis 6-31G*
}

set_num_threads( 1 )
memory 2 gb

molecule MOL {
0 1

O	 -0.291628	 1.323815	 -0.000732
C	 -0.449655	 0.146360	 0.000961
C	 -1.783294	 -0.549321	 -0.000296
O	 0.550821	 -0.724572	 0.000672
H	 -1.863538	 -1.185371	 -0.874187
H	 -2.574672	 0.185258	 -0.002793
H	 -1.866414	 -1.182381	 0.875436
C	 0.218097	 -2.084146	 -0.216432
H	 -0.450283	 -2.439087	 0.554698
H	 1.150782	 -2.625093	 -0.181427
H	 -0.252496	 -2.210209	 -1.180793

	symmetry c1
}
set optking {
	frozen_dihedral = ("
		2 4 8 9
	")
}

ee = energy('scf')
oeprop('DIPOLE', 'QUADRUPOLE', 'MULLIKEN_CHARGES')
f=open( 'psi4out.xyz', 'w' )
f.write( "11  " )
f.write( str(ee) + "\n" )
f.write( MOL.save_string_xyz() )
f.close()
--------------------------------------------------------------------------

    Molecular point group: c1

    Geometry (in Angstrom), charge = 0, multiplicity = 1:

       Center              X                  Y                   Z               Mass
    ------------   -----------------  -----------------  -----------------  -----------------
           O          0.058669562121     1.726200503801     0.045266228022    15.994914619560
           C         -0.099357437879     0.548745503801     0.046959228022    12.000000000000
           C         -1.432996437879    -0.146935496199     0.045702228022    12.000000000000
           O          0.901118562121    -0.322186496199     0.046670228022    15.994914619560
           H         -1.513240437879    -0.782985496199    -0.828188771978     1.007825032070
           H         -2.224374437879     0.587643503801     0.043205228022     1.007825032070
           H         -1.516116437879    -0.779995496199     0.921434228022     1.007825032070
           C          0.568394562121    -1.681760496199    -0.170433771978    12.000000000000
           H         -0.099985437879    -2.036701496199     0.600696228022     1.007825032070
           H          1.501079562121    -2.222707496199    -0.135428771978     1.007825032070
           H          0.097801562121    -1.807823496199    -1.134794771978     1.007825032070

  Charge       = 0
  Multiplicity = 1
  Basis Set: 6-31G*
  Basis Set:

    Orbital Energies (a.u.)
    -----------------------

    Doubly Occupied:

       1A    -20.610524     2A    -20.544394     3A    -11.379177
       4A    -11.300270     5A    -11.241839     6A     -1.471005
       7A     -1.370823     8A     -1.027219     9A     -0.991540
      10A     -0.785285    11A     -0.702649    12A     -0.699089
      13A     -0.684955    14A     -0.605822    15A     -0.590252
      16A     -0.565842    17A     -0.556867    18A     -0.529090
      19A     -0.451315    20A     -0.435642

  @DF-RHF Final Energy:  -266.81046506423206

   => Energetics <=

    Nuclear Repulsion Energy =            185.2486662010974783
    One-Electron Energy =                -731.0309805791378039
    Two-Electron Energy =                 278.9718493138074109
    DFT Exchange-Correlation Energy =       0.0000000000000000
    Empirical Dispersion Energy =           0.0000000000000000
    PCM Polarization Energy =               0.0000000000000000
    EFP Energy =                            0.0000000000000000
    Total Energy =                       -266.8104650642329716

  Mulliken Charges: (a.u.)
   Center  Symbol    Alpha    Beta     Spin     Total
       1     O     4.26980  4.26980  0.00000 -0.53960
       2     C     2.60721  2.60721  0.00000  0.78558
       3     C     3.31900  3.31900  0.00000 -0.63800
       4     O     4.29221  4.29221  0.00000 -0.58442
       5     H     0.40311  0.40311  0.00000  0.19379
       6     H     0.38759  0.38759  0.00000  0.22483
       7     H     0.39991  0.39991  0.00000  0.20017
       8     C     3.10014  3.10014  0.00000 -0.20027
       9     H     0.41438  0.41438  0.00000  0.17125
      10     H     0.39429  0.39429  0.00000  0.21142
      11     H     0.41237  0.41237  0.00000  0.17527

   Total alpha = 20.00000, Total beta = 20.00000, Total charge = -0.00000
