  ==> Input File <==

--------------------------------------------------------------------------
set {
	reference rhf
	basis cc-pvtz
}

set_num_threads( 4 )
memory 2 gb

molecule MOL {
0 1

H	 -2.816458	 -0.841657	 -0.064679
N	 -1.878861	 -0.711874	 0.250184
C	 -1.341419	 0.551458	 -0.220231
H	 -1.333674	 -1.468530	 -0.105118
C	 0.082190	 0.731516	 0.254705
H	 -1.357065	 0.652078	 -1.304747
H	 -1.939897	 1.357530	 0.189797
O	 0.300644	 2.084216	 0.519636
H	 0.248587	 0.142335	 1.155455
H	 0.770158	 0.383309	 -0.512355
C	 1.599813	 2.394127	 0.900865
H	 1.648522	 3.458358	 1.080931
H	 1.881757	 1.872463	 1.813043
H	 2.314780	 2.137130	 0.122832

	symmetry c1
}
set optking {
	frozen_dihedral = ("
		8 5 3 6
	")
}

ee = optimize('scf')
oeprop('DIPOLE', 'QUADRUPOLE', 'MULLIKEN_CHARGES')
f=open( 'psi4out.xyz', 'w' )
f.write( "14  " )
f.write( str(ee) + "\n" )
f.write( MOL.save_string_xyz() )
f.close()
--------------------------------------------------------------------------

    Molecular point group: c1
  Charge       = 0
  Multiplicity = 1
  Basis Set: CC-PVTZ
  Basis Set:
  @DF-RHF Final Energy:  -248.22008596186501
    Total Energy =                       -248.2200859618649247
    Molecular point group: c1
  Basis Set: CC-PVTZ
  Basis Set:
  Basis Set: CC-PVTZ
  Basis Set:
  @DF-RHF Final Energy:  -248.22053765507334
    Total Energy =                       -248.2205376550733718
  Basis Set: CC-PVTZ
  Basis Set:
  Basis Set: CC-PVTZ
  Basis Set:
  @DF-RHF Final Energy:  -248.22061426201674
    Total Energy =                       -248.2206142620165679
  Basis Set: CC-PVTZ
  Basis Set:
  Basis Set: CC-PVTZ
  Basis Set:
  @DF-RHF Final Energy:  -248.22062510045484
    Total Energy =                       -248.2206251004546971
  Basis Set: CC-PVTZ
  Basis Set:
  Basis Set: CC-PVTZ
  Basis Set:
  @DF-RHF Final Energy:  -248.22062718720144
    Total Energy =                       -248.2206271872014440
  Basis Set: CC-PVTZ
  Basis Set:
  Charge       = 0
  Multiplicity = 1
  Basis Set: CC-PVTZ
  Basis Set:

    Orbital Energies (a.u.)
    -----------------------

    Doubly Occupied:

       1A    -20.548502     2A    -15.531620     3A    -11.262673
       4A    -11.261671     5A    -11.240032     6A     -1.382267
       7A     -1.180892     8A     -0.998757     9A     -0.899971
      10A     -0.824299    11A     -0.680092    12A     -0.674021
      13A     -0.647022    14A     -0.621765    15A     -0.606749
      16A     -0.545644    17A     -0.521994    18A     -0.500372
      19A     -0.470134    20A     -0.416318    21A     -0.390019

  @DF-RHF Final Energy:  -248.22062740961408

   => Energetics <=

    Nuclear Repulsion Energy =            190.9310466060346982
    One-Electron Energy =                -715.8937279333119932
    Two-Electron Energy =                 276.7420539176631564
    DFT Exchange-Correlation Energy =       0.0000000000000000
    Empirical Dispersion Energy =           0.0000000000000000
    PCM Polarization Energy =               0.0000000000000000
    EFP Energy =                            0.0000000000000000
    Total Energy =                       -248.2206274096141669
    Molecular point group: c1
  Basis Set: CC-PVTZ
  Basis Set:

  -Total Gradient:
     Atom            X                  Y                   Z
    ------   -----------------  -----------------  -----------------
       1       -0.000005071548     0.000001520667    -0.000011001067
       2       -0.000029886854    -0.000049498148     0.000048647461
       3       -0.001242605427     0.005865657319     0.001498070983
       4        0.000007246462    -0.000003472965    -0.000010770827
       5        0.001631470564    -0.000516367019    -0.004742231758
       6        0.000762958184    -0.004803338340    -0.000374388853
       7       -0.000010750104    -0.000008727984     0.000001493450
       8       -0.001113980410    -0.000487650331     0.003596517025
       9        0.000005245961    -0.000006622252    -0.000003644475
      10       -0.000006889502    -0.000015579093    -0.000005090223
      11        0.000005186068     0.000029156386     0.000003106231
      12        0.000008461630     0.000002155782     0.000002964275
      13       -0.000006049245    -0.000003221092    -0.000004679422
      14       -0.000005335776    -0.000004012931     0.000001007200

  **** Optimization is complete! (in 6 steps) ****
    Final optimized geometry and variables:
    Molecular point group: c1

    Geometry (in Angstrom), charge = 0, multiplicity = 1:

    H           -2.596125251230    -1.826030628913    -0.327209189048
    N           -1.630282656006    -1.736370863427    -0.093029429525
    C           -1.108404399164    -0.455561278172    -0.555026434641
    H           -1.156454331391    -2.497402574102    -0.534193998609
    C            0.326195791077    -0.261820864306    -0.079817131141
    H           -1.147154792291    -0.374961341167    -1.639400776587
    H           -1.710512051456     0.334481175279    -0.130111167136
    O            0.544645227265     1.092835757913     0.165838945159
    H            0.470293052577    -0.832137724844     0.834449143563
    H            1.036933635334    -0.631349435275    -0.818404230262
    C            1.836931071219     1.399818589050     0.570340418450
    H            1.885191421553     2.464660001341     0.746510239517
    H            2.099858849756     0.880531446726     1.489429884860
    H            2.567373052744     1.138203666855    -0.192442908405

  Mulliken Charges: (a.u.)
   Center  Symbol    Alpha    Beta     Spin     Total
       1     H     0.42909  0.42909  0.00000  0.14181
       2     N     3.68940  3.68940  0.00000 -0.37880
       3     C     3.03208  3.03208  0.00000 -0.06416
       4     H     0.43170  0.43170  0.00000  0.13660
       5     C     2.96215  2.96215  0.00000  0.07570
       6     H     0.46507  0.46507  0.00000  0.06986
       7     H     0.44963  0.44963  0.00000  0.10074
       8     O     4.17315  4.17315  0.00000 -0.34631
       9     H     0.46939  0.46939  0.00000  0.06122
      10     H     0.47746  0.47746  0.00000  0.04508
      11     C     3.03031  3.03031  0.00000 -0.06063
      12     H     0.44696  0.44696  0.00000  0.10609
      13     H     0.47145  0.47145  0.00000  0.05711
      14     H     0.47215  0.47215  0.00000  0.05569

   Total alpha = 21.00000, Total beta = 21.00000, Total charge = -0.00000
