  ==> Input File <==

--------------------------------------------------------------------------
set {
	reference rhf
	basis 6-31G*
}

set_num_threads( 1 )
memory 2 gb

molecule MOL {
0 1

H	 0.998461	 2.543793	 0.042726
O	 1.284945	 1.782437	 0.528645
C	 0.709265	 0.639550	 -0.033818
C	 -0.793441	 0.596080	 0.058728
H	 1.131468	 -0.205050	 0.498721
H	 1.006178	 0.529729	 -1.076318
C	 -1.530462	 -0.493172	 -0.025500
H	 -1.268471	 1.554324	 0.202247
H	 -1.092586	 -1.461565	 -0.186463
H	 -2.602122	 -0.450675	 0.050101

	symmetry c1
}
set optking {
	frozen_dihedral = ("
		5 3 2 1,
		3 4 7 9
	")
}

ee = energy('scf')
oeprop('DIPOLE', 'QUADRUPOLE', 'MULLIKEN_CHARGES')
f=open( 'psi4out.xyz', 'w' )
f.write( "10  " )
f.write( str(ee) + "\n" )
f.write( MOL.save_string_xyz() )
f.close()
--------------------------------------------------------------------------

    Molecular point group: c1

    Geometry (in Angstrom), charge = 0, multiplicity = 1:

       Center              X                  Y                   Z               Mass
    ------------   -----------------  -----------------  -----------------  -----------------
           H          1.009908587587     1.855503177811    -0.094690256945     1.007825032070
           O          1.296392587587     1.094147177811     0.391228743055    15.994914619560
           C          0.720712587587    -0.048739822189    -0.171234256945    12.000000000000
           C         -0.781993412413    -0.092209822189    -0.078688256945    12.000000000000
           H          1.142915587587    -0.893339822189     0.361304743055     1.007825032070
           H          1.017625587587    -0.158560822189    -1.213734256945     1.007825032070
           C         -1.519014412413    -1.181461822189    -0.162916256945    12.000000000000
           H         -1.257023412413     0.866034177811     0.064830743055     1.007825032070
           H         -1.081138412413    -2.149854822189    -0.323879256945     1.007825032070
           H         -2.590674412413    -1.138964822189    -0.087315256945     1.007825032070

  Charge       = 0
  Multiplicity = 1
  Basis Set: 6-31G*
  Basis Set:

    Orbital Energies (a.u.)
    -----------------------

    Doubly Occupied:

       1A    -20.561402     2A    -11.276907     3A    -11.232523
       4A    -11.221853     5A     -1.370028     6A     -1.062820
       7A     -0.920334     8A     -0.779681     9A     -0.694959
      10A     -0.644563    11A     -0.622665    12A     -0.576785
      13A     -0.533267    14A     -0.500143    15A     -0.445574
      16A     -0.364337

  @DF-RHF Final Energy:  -191.91292837115017

   => Energetics <=

    Nuclear Repulsion Energy =            116.9860129614038726
    One-Electron Energy =                -492.1822009066738701
    Two-Electron Energy =                 183.2832595741198247
    DFT Exchange-Correlation Energy =       0.0000000000000000
    Empirical Dispersion Energy =           0.0000000000000000
    PCM Polarization Energy =               0.0000000000000000
    EFP Energy =                            0.0000000000000000
    Total Energy =                       -191.9129283711502012

  Mulliken Charges: (a.u.)
   Center  Symbol    Alpha    Beta     Spin     Total
       1     H     0.28208  0.28208  0.00000  0.43584
       2     O     4.36684  4.36684  0.00000 -0.73367
       3     C     3.00491  3.00491  0.00000 -0.00981
       4     C     3.08538  3.08538  0.00000 -0.17076
       5     H     0.40735  0.40735  0.00000  0.18530
       6     H     0.42207  0.42207  0.00000  0.15586
       7     C     3.19903  3.19903  0.00000 -0.39806
       8     H     0.41040  0.41040  0.00000  0.17920
       9     H     0.41306  0.41306  0.00000  0.17389
      10     H     0.40889  0.40889  0.00000  0.18222

   Total alpha = 16.00000, Total beta = 16.00000, Total charge = -0.00000
