  ==> Input File <==

--------------------------------------------------------------------------
set {
	reference rhf
	basis 6-31G*
}

set_num_threads( 4 )
memory 2 gb

molecule MOL {
0 1

H	 2.002971	 0.013111	 0.445982
C	 1.165597	 0.014428	 -0.238202
O	 0.000000	 0.000000	 0.521119
H	 1.223142	 0.903966	 -0.863581
H	 1.234073	 -0.862288	 -0.880361
C	 -1.165642	 0.000000	 -0.238270
H	 -1.228672	 0.883184	 -0.872070
H	 -2.003012	 0.000000	 0.445920
H	 -1.228672	 -0.883184	 -0.872070

	symmetry c1
}
set optking {
	frozen_dihedral = ("
		2 3 6 7
	")
}

ee = optimize('scf')
oeprop('DIPOLE', 'QUADRUPOLE', 'MULLIKEN_CHARGES')
f=open( 'psi4out.xyz', 'w' )
f.write( "9  " )
f.write( str(ee) + "\n" )
f.write( MOL.save_string_xyz() )
f.close()
--------------------------------------------------------------------------

    Molecular point group: c1
  Charge       = 0
  Multiplicity = 1
  Basis Set: 6-31G*
  Basis Set:

    Orbital Energies (a.u.)
    -----------------------

    Doubly Occupied:

       1A    -20.556364     2A    -11.265316     3A    -11.265295
       4A     -1.379572     5A     -0.974918     6A     -0.872965
       7A     -0.661813     8A     -0.654287     9A     -0.645296
      10A     -0.551820    11A     -0.529761    12A     -0.474775
      13A     -0.417407

  @DF-RHF Final Energy:  -154.06463967004322

   => Energetics <=

    Nuclear Repulsion Energy =             84.7681686080375556
    One-Electron Energy =                -377.1664405580817743
    Two-Electron Energy =                 138.3336322800009555
    DFT Exchange-Correlation Energy =       0.0000000000000000
    Empirical Dispersion Energy =           0.0000000000000000
    PCM Polarization Energy =               0.0000000000000000
    EFP Energy =                            0.0000000000000000
    Total Energy =                       -154.0646396700432490
    Molecular point group: c1
  Basis Set: 6-31G*
  Basis Set:

  -Total Gradient:
     Atom            X                  Y                   Z
    ------   -----------------  -----------------  -----------------
       1        0.000044636907     0.000006160411    -0.000020343046
       2        0.000003595249     0.000096140835     0.000133418213
       3       -0.000000552720    -0.000135212062    -0.000251275903
       4       -0.000013349927     0.000013807274    -0.000002060427
       5       -0.000044228349    -0.000008024384     0.000014757010
       6       -0.000003820850     0.000024544474     0.000133866905
       7        0.000057154533    -0.000002140502    -0.000023415524
       8       -0.000043927223     0.000029511406    -0.000020127425
       9        0.000000492381    -0.000024787452     0.000035180196

  **** Optimization is complete! (in 1 steps) ****
    Final optimized geometry and variables:
    Molecular point group: c1

    Geometry (in Angstrom), charge = 0, multiplicity = 1:

    H            2.002986449640     0.008151302416     0.445958223381
    C            1.165612449640     0.009468302416    -0.238225776619
    O            0.000015449640    -0.004959697584     0.521095223381
    H            1.223157449640     0.899006302416    -0.863604776619
    H            1.234088449640    -0.867247697584    -0.880384776619
    C           -1.165626550360    -0.004959697584    -0.238293776619
    H           -1.228656550360     0.878224302416    -0.872093776619
    H           -2.002996550360    -0.004959697584     0.445896223381
    H           -1.228656550360    -0.888143697584    -0.872093776619

  Mulliken Charges: (a.u.)
   Center  Symbol    Alpha    Beta     Spin     Total
       1     H     0.41169  0.41169  0.00000  0.17661
       2     C     3.08033  3.08033  0.00000 -0.16067
       3     O     4.29502  4.29502  0.00000 -0.59004
       4     H     0.43021  0.43021  0.00000  0.13957
       5     H     0.43025  0.43025  0.00000  0.13950
       6     C     3.08033  3.08033  0.00000 -0.16066
       7     H     0.43030  0.43030  0.00000  0.13941
       8     H     0.41170  0.41170  0.00000  0.17661
       9     H     0.43017  0.43017  0.00000  0.13967

   Total alpha = 13.00000, Total beta = 13.00000, Total charge =  0.00000
