                              Psi4 1.0.54 Driver

  ==> Input File <==

--------------------------------------------------------------------------
set {
	reference rhf
	basis cc-pvtz
}

set_num_threads( 4 )
memory 2 gb

molecule MOL {
0 1

H	 -3.048133	 -0.479470	 0.240260
C	 -2.891545	 0.305747	 -0.495810
O	 -1.550291	 0.425559	 -0.833783
H	 -3.437581	 0.054629	 -1.393403
H	 -3.287764	 1.236908	 -0.094770
C	 -0.718530	 0.758693	 0.228682
C	 0.718529	 0.758687	 -0.228709
H	 -0.968414	 1.749796	 0.607155
H	 -0.833914	 0.049028	 1.045073
O	 1.401606	 -0.295166	 0.366636
H	 0.748705	 0.673477	 -1.312803
H	 1.176496	 1.708671	 0.046552
C	 2.714315	 -0.441627	 -0.061017
H	 2.765292	 -0.641548	 -1.128869
H	 3.305661	 0.447341	 0.150952
H	 3.143725	 -1.278506	 0.470147

	symmetry c1
}
set optking {
	frozen_dihedral = ("
		3 6 7 11
	")
}

ee,wfn = optimize('scf', return_wfn=True)
oeprop( wfn, 'DIPOLE', 'QUADRUPOLE', 'MULLIKEN_CHARGES')
f=open( 'psi4out.xyz', 'w' )
f.write( "16  " )
f.write( str(ee) + "\n" )
f.write( MOL.save_string_xyz() )
f.close()
--------------------------------------------------------------------------

    Molecular point group: c1
  Charge       = 0
  Multiplicity = 1
  Basis Set: CC-PVTZ
  Basis Set:
  @DF-RHF Final Energy:  -307.09403979371484
    Total Energy =                       -307.0940397937148987
    Molecular point group: c1
  Basis Set: CC-PVTZ
  Basis Set:
  Basis Set: CC-PVTZ
  Basis Set:
  @DF-RHF Final Energy:  -307.09445737584497
    Total Energy =                       -307.0944573758446268
  Basis Set: CC-PVTZ
  Basis Set:
  Basis Set: CC-PVTZ
  Basis Set:
  @DF-RHF Final Energy:  -307.09452330893657
    Total Energy =                       -307.0945233089366297
  Basis Set: CC-PVTZ
  Basis Set:
  Charge       = 0
  Multiplicity = 1
  Basis Set: CC-PVTZ
  Basis Set:

    Orbital Energies (a.u.)
    -----------------------

    Doubly Occupied:

       1A    -20.550276     2A    -20.549836     3A    -11.266800
       4A    -11.266163     5A    -11.262846     6A    -11.262644
       7A     -1.390361     8A     -1.377322     9A     -1.029006
      10A     -0.939431    11A     -0.887072    12A     -0.830592
      13A     -0.687115    14A     -0.680979    15A     -0.658810
      16A     -0.642359    17A     -0.630960    18A     -0.599913
      19A     -0.552691    20A     -0.533083    21A     -0.509029
      22A     -0.482105    23A     -0.466712    24A     -0.425054
      25A     -0.413525

  @DF-RHF Final Energy:  -307.09452642410042

   => Energetics <=

    Nuclear Repulsion Energy =            256.1572360554575880
    One-Electron Energy =                -926.7141472907665047
    Two-Electron Energy =                 363.4623848112084943
    DFT Exchange-Correlation Energy =       0.0000000000000000
    Empirical Dispersion Energy =           0.0000000000000000
    PCM Polarization Energy =               0.0000000000000000
    EFP Energy =                            0.0000000000000000
    Total Energy =                       -307.0945264241004224
    Molecular point group: c1
  Basis Set: CC-PVTZ
  Basis Set:

  -Total Gradient:
     Atom            X                  Y                   Z
    ------   -----------------  -----------------  -----------------
       1       -0.000004731086     0.000011561262    -0.000001773206
       2       -0.000047538763    -0.000033158193    -0.000054192062
       3       -0.000062679113     0.001616011230    -0.000298884521
       4       -0.000033857347     0.000000230321     0.000011734573
       5        0.000003531237    -0.000001411595     0.000004344557
       6        0.000105196068    -0.002501726475     0.000485079576
       7       -0.000019164704     0.002849081194    -0.000291809309
       8       -0.000018992073     0.000005546602     0.000036736544
       9        0.000010525207    -0.000008748168     0.000001378742
      10       -0.000072651830     0.000173080552    -0.000046071518
      11        0.000067738962    -0.002050196307     0.000149817643
      12        0.000001345829    -0.000005894406    -0.000008607199
      13        0.000055179656    -0.000068248643     0.000019282386
      14        0.000004173893     0.000008633518     0.000001975005
      15       -0.000008864932    -0.000002066580    -0.000001447808
      16        0.000020789001     0.000007305687    -0.000007563402

  **** Optimization is complete! (in 4 steps) ****
    Final optimized geometry and variables:
    Molecular point group: c1

    Geometry (in Angstrom), charge = 0, multiplicity = 1:

    H           -3.012431044601    -0.716513318910     0.445103479603
    C           -2.846856080636     0.038386903836    -0.320098344794
    O           -1.502541514481     0.137686129622    -0.654508361968
    H           -3.389701458943    -0.243458069725    -1.210544182075
    H           -3.238578332874     0.986624938604     0.042799520532
    C           -0.675437327681     0.503700292283     0.406529204851
    C            0.772687169928     0.526873207783    -0.062741083276
    H           -0.971521837508     1.484178535360     0.774757261885
    H           -0.763362949666    -0.201844912179     1.226799336622
    O            1.465585603183    -0.533070992574     0.523325945103
    H            0.785249571809     0.427143969040    -1.143711321530
    H            1.249416923786     1.467818507220     0.202527591477
    C            2.789708596341    -0.640097998865     0.118683597138
    H            2.866598555781    -0.803972612065    -0.953814465145
    H            3.357595158653     0.253366015884     0.370761593790
    H            3.225760638159    -1.484689540100     0.632065964860

  Mulliken Charges: (a.u.)
   Center  Symbol    Alpha    Beta     Spin     Total
       1     H     0.47041  0.47041  0.00000  0.05918
       2     C     3.02941  3.02941  0.00000 -0.05882
       3     O     4.17319  4.17319  0.00000 -0.34638
       4     H     0.44651  0.44651  0.00000  0.10698
       5     H     0.47279  0.47279  0.00000  0.05442
       6     C     2.96574  2.96574  0.00000  0.06852
       7     C     2.96641  2.96641  0.00000  0.06718
       8     H     0.47604  0.47604  0.00000  0.04791
       9     H     0.46576  0.46576  0.00000  0.06848
      10     O     4.17360  4.17360  0.00000 -0.34719
      11     H     0.46581  0.46581  0.00000  0.06838
      12     H     0.47495  0.47495  0.00000  0.05010
      13     C     3.02927  3.02927  0.00000 -0.05853
      14     H     0.47070  0.47070  0.00000  0.05861
      15     H     0.47286  0.47286  0.00000  0.05428
      16     H     0.44656  0.44656  0.00000  0.10689

   Total alpha = 25.00000, Total beta = 25.00000, Total charge = -0.00000

*** Psi4 exiting successfully. Buy a developer a beer!
