  ==> Input File <==

--------------------------------------------------------------------------
set {
	reference rhf
	basis 6-31G*
}

set_num_threads( 1 )
memory 2 gb

molecule MOL {
0 1

O	 3.225979	 0.970355	 -0.599647
C	 2.701189	 0.057885	 -0.047330
C	 1.245376	 -0.013843	 0.345420
O	 3.347903	 -1.046386	 0.304773
C	 0.455112	 1.231400	 -0.050772
H	 0.838542	 -0.913825	 -0.103701
H	 1.208210	 -0.175333	 1.419774
C	 -0.998893	 1.219485	 0.433193
H	 0.482531	 1.345121	 -1.130325
H	 0.957290	 2.103070	 0.354729
C	 -1.883438	 0.145884	 -0.207175
H	 -1.431207	 2.195402	 0.224832
H	 -1.019646	 1.105716	 1.516076
C	 -2.812651	 -0.536982	 0.798438
H	 -2.479883	 0.598675	 -0.997779
H	 -1.266556	 -0.611475	 -0.685544
C	 -3.697607	 -1.615349	 0.170657
H	 -3.443343	 0.213208	 1.272439
H	 -2.217428	 -0.980756	 1.594977
C	 -4.625229	 -2.289702	 1.180837
H	 -4.292351	 -1.173810	 -0.626190
H	 -3.068891	 -2.368403	 -0.299881
H	 -5.239260	 -3.048732	 0.706026
H	 -5.291590	 -1.567523	 1.644103
H	 -4.058636	 -2.770753	 1.973198
C	 4.728119	 -1.109107	 -0.004993
H	 4.882018	 -1.033965	 -1.071845
H	 5.068212	 -2.067527	 0.355250
H	 5.265056	 -0.311663	 0.488280

	symmetry c1
}
set optking {
	frozen_dihedral = ("
		21 17 14 11,
		17 14 11 15,
		6 3 5 9,
		11 8 5 9,
		2 4 26 27,
		1 2 4 26,
		6 3 2 1
	")
}

ee = energy('scf')
oeprop('DIPOLE', 'QUADRUPOLE', 'MULLIKEN_CHARGES')
f=open( 'psi4out.xyz', 'w' )
f.write( "29  " )
f.write( str(ee) + "\n" )
f.write( MOL.save_string_xyz() )
f.close()
--------------------------------------------------------------------------

    Molecular point group: c1

    Geometry (in Angstrom), charge = 0, multiplicity = 1:

       Center              X                  Y                   Z               Mass
    ------------   -----------------  -----------------  -----------------  -----------------
           O          3.028248407063     1.259208974091    -0.810796089643    15.994914619560
           C          2.503458407063     0.346738974091    -0.258479089643    12.000000000000
           C          1.047645407063     0.275010974091     0.134270910357    12.000000000000
           O          3.150172407063    -0.757532025909     0.093623910357    15.994914619560
           C          0.257381407063     1.520253974091    -0.261921089643    12.000000000000
           H          0.640811407063    -0.624971025909    -0.314850089643     1.007825032070
           H          1.010479407063     0.113520974091     1.208624910357     1.007825032070
           C         -1.196623592937     1.508338974091     0.222043910357    12.000000000000
           H          0.284800407063     1.633974974091    -1.341474089643     1.007825032070
           H          0.759559407063     2.391923974091     0.143579910357     1.007825032070
           C         -2.081168592937     0.434737974091    -0.418324089643    12.000000000000
           H         -1.628937592937     2.484255974091     0.013682910357     1.007825032070
           H         -1.217376592937     1.394569974091     1.304926910357     1.007825032070
           C         -3.010381592937    -0.248128025909     0.587288910357    12.000000000000
           H         -2.677613592937     0.887528974091    -1.208928089643     1.007825032070
           H         -1.464286592937    -0.322621025909    -0.896693089643     1.007825032070
           C         -3.895337592937    -1.326495025909    -0.040492089643    12.000000000000
           H         -3.641073592937     0.502061974091     1.061289910357     1.007825032070
           H         -2.415158592937    -0.691902025909     1.383827910357     1.007825032070
           C         -4.822959592937    -2.000848025909     0.969687910357    12.000000000000
           H         -4.490081592937    -0.884956025909    -0.837339089643     1.007825032070
           H         -3.266621592937    -2.079549025909    -0.511030089643     1.007825032070
           H         -5.436990592937    -2.759878025909     0.494876910357     1.007825032070
           H         -5.489320592937    -1.278669025909     1.432953910357     1.007825032070
           H         -4.256366592937    -2.481899025909     1.762048910357     1.007825032070
           C          4.530388407063    -0.820253025909    -0.216142089643    12.000000000000
           H          4.684287407063    -0.745111025909    -1.282994089643     1.007825032070
           H          4.870481407063    -1.778673025909     0.144100910357     1.007825032070
           H          5.067325407063    -0.022809025909     0.277130910357     1.007825032070

  Charge       = 0
  Multiplicity = 1
  Basis Set: 6-31G*
  Basis Set:

    Orbital Energies (a.u.)
    -----------------------

    Doubly Occupied:

       1A    -20.603605     2A    -20.545434     3A    -11.372371
       4A    -11.280820     5A    -11.235082     6A    -11.219233
       7A    -11.216348     8A    -11.215817     9A    -11.215166
      10A    -11.214510    11A    -11.209272    12A     -1.469306
      13A     -1.362741    14A     -1.098574    15A     -1.066632
      16A     -1.019520    17A     -0.977136    18A     -0.929148
      19A     -0.861666    20A     -0.799904    21A     -0.790265
      22A     -0.764014    23A     -0.702090    24A     -0.682503
      25A     -0.672080    26A     -0.647807    27A     -0.630293
      28A     -0.605195    29A     -0.597373    30A     -0.577414
      31A     -0.566040    32A     -0.555249    33A     -0.533699
      34A     -0.528430    35A     -0.513656    36A     -0.509127
      37A     -0.502248    38A     -0.475878    39A     -0.472149
      40A     -0.462007    41A     -0.456776    42A     -0.455489
      43A     -0.438528    44A     -0.436383

  @DF-RHF Final Energy:  -501.03938222363024

   => Energetics <=

    Nuclear Repulsion Energy =            616.1721443313418831
    One-Electron Energy =               -1903.4492180680890669
    Two-Electron Energy =                 786.2376915131173973
    DFT Exchange-Correlation Energy =       0.0000000000000000
    Empirical Dispersion Energy =           0.0000000000000000
    PCM Polarization Energy =               0.0000000000000000
    EFP Energy =                            0.0000000000000000
    Total Energy =                       -501.0393822236299002

  Mulliken Charges: (a.u.)
   Center  Symbol    Alpha    Beta     Spin     Total
       1     O     4.28571  4.28571  0.00000 -0.57142
       2     C     2.60504  2.60504  0.00000  0.78991
       3     C     3.20888  3.20888  0.00000 -0.41776
       4     O     4.30744  4.30744  0.00000 -0.61487
       5     C     3.15486  3.15486  0.00000 -0.30973
       6     H     0.39959  0.39959  0.00000  0.20082
       7     H     0.40113  0.40113  0.00000  0.19773
       8     C     3.15928  3.15928  0.00000 -0.31855
       9     H     0.41307  0.41307  0.00000  0.17385
      10     H     0.40929  0.40929  0.00000  0.18142
      11     C     3.15555  3.15555  0.00000 -0.31110
      12     H     0.41636  0.41636  0.00000  0.16728
      13     H     0.42172  0.42172  0.00000  0.15656
      14     C     3.15276  3.15276  0.00000 -0.30553
      15     H     0.41936  0.41936  0.00000  0.16128
      16     H     0.42339  0.42339  0.00000  0.15322
      17     C     3.15178  3.15178  0.00000 -0.30355
      18     H     0.42284  0.42284  0.00000  0.15432
      19     H     0.42457  0.42457  0.00000  0.15086
      20     C     3.23928  3.23928  0.00000 -0.47857
      21     H     0.42270  0.42270  0.00000  0.15460
      22     H     0.42351  0.42351  0.00000  0.15299
      23     H     0.41920  0.41920  0.00000  0.16161
      24     H     0.42165  0.42165  0.00000  0.15669
      25     H     0.42201  0.42201  0.00000  0.15599
      26     C     3.09239  3.09239  0.00000 -0.18478
      27     H     0.40906  0.40906  0.00000  0.18188
      28     H     0.40849  0.40849  0.00000  0.18301
      29     H     0.40908  0.40908  0.00000  0.18184

   Total alpha = 44.00000, Total beta = 44.00000, Total charge =  0.00000
