  ==> Input File <==

--------------------------------------------------------------------------
set {
	reference rhf
	basis 6-31G*
}

set_num_threads( 4 )
memory 2 gb

molecule MOL {
0 1

H	 -2.646374	 -0.642757	 1.268656
C	 -2.083525	 -0.384536	 0.393091
O	 -0.807605	 -0.127164	 0.768327
F	 -2.118945	 -1.383102	 -0.486752
F	 -2.621877	 0.670592	 -0.209486
C	 0.084052	 0.273579	 -0.209957
C	 1.126434	 1.151084	 0.470915
Cl	 -0.746205	 1.171245	 -1.491395
H	 0.589562	 -0.558063	 -0.668875
F	 2.022035	 1.561892	 -0.401596
F	 1.747018	 0.437811	 1.389367
F	 0.590186	 2.197499	 1.050077

	symmetry c1
}
set optking {
	frozen_dihedral = ("
		9 6 3 2
	")
}

ee = optimize('scf')
oeprop('DIPOLE', 'QUADRUPOLE', 'MULLIKEN_CHARGES')
f=open( 'psi4out.xyz', 'w' )
f.write( "12  " )
f.write( str(ee) + "\n" )
f.write( MOL.save_string_xyz() )
f.close()
--------------------------------------------------------------------------

    Molecular point group: c1
  Charge       = 0
  Multiplicity = 1
  Basis Set: 6-31G*
  Basis Set:
  @DF-RHF Final Energy: -1146.28102207733173
    Total Energy =                      -1146.2810220773314995
    Molecular point group: c1
  Basis Set: 6-31G*
  Basis Set:
  Basis Set: 6-31G*
  Basis Set:
  @DF-RHF Final Energy: -1146.29871755793533
    Total Energy =                      -1146.2987175579355608
  Basis Set: 6-31G*
  Basis Set:
  Basis Set: 6-31G*
  Basis Set:
  @DF-RHF Final Energy: -1146.30346578226181
    Total Energy =                      -1146.3034657822620375
  Basis Set: 6-31G*
  Basis Set:
  Basis Set: 6-31G*
  Basis Set:
  @DF-RHF Final Energy: -1146.30564227738751
    Total Energy =                      -1146.3056422773879603
  Basis Set: 6-31G*
  Basis Set:
  @DF-RHF Final Energy: -1146.30610911809072
    Total Energy =                      -1146.3061091180916264
  @DF-RHF Final Energy: -1146.30618620708469
    Total Energy =                      -1146.3061862070844654
  Basis Set: 6-31G*
  Basis Set:
  @DF-RHF Final Energy: -1146.30620090323896
    Total Energy =                      -1146.3062009032378228
  Basis Set: 6-31G*
  Basis Set:
  Basis Set: 6-31G*
  Basis Set:
  @DF-RHF Final Energy: -1146.30621704409350
    Total Energy =                      -1146.3062170440925911
  Basis Set: 6-31G*
  Basis Set:
  Basis Set: 6-31G*
  Basis Set:
  @DF-RHF Final Energy: -1146.30622138926356
    Total Energy =                      -1146.3062213892626460
  Basis Set: 6-31G*
  Basis Set:
  Charge       = 0
  Multiplicity = 1
  Basis Set: 6-31G*
  Basis Set:

    Orbital Energies (a.u.)
    -----------------------

    Doubly Occupied:

       1A   -104.847236     2A    -26.358756     3A    -26.356966
       4A    -26.356376     5A    -26.341756     6A    -26.336228
       7A    -20.644492     8A    -11.526050     9A    -11.485964
      10A    -11.402073    11A    -10.582330    12A     -8.051711
      13A     -8.048106    14A     -8.047973    15A     -1.759843
      16A     -1.710125    17A     -1.656295    18A     -1.654690
      19A     -1.632845    20A     -1.477334    21A     -1.182573
      22A     -1.058494    23A     -0.982561    24A     -0.915055
      25A     -0.852339    26A     -0.847787    27A     -0.842250
      28A     -0.818392    29A     -0.805473    30A     -0.783381
      31A     -0.730513    32A     -0.723290    33A     -0.705013
      34A     -0.690634    35A     -0.678708    36A     -0.673125
      37A     -0.657558    38A     -0.656167    39A     -0.646896
      40A     -0.632180    41A     -0.594128    42A     -0.556637
      43A     -0.532924    44A     -0.478470    45A     -0.468472

  @DF-RHF Final Energy: -1146.30622201111260

   => Energetics <=

    Nuclear Repulsion Energy =            741.7121900833294603
    One-Electron Energy =               -3066.4564820991317902
    Two-Electron Energy =                1178.4380700046890524
    DFT Exchange-Correlation Energy =       0.0000000000000000
    Empirical Dispersion Energy =           0.0000000000000000
    PCM Polarization Energy =               0.0000000000000000
    EFP Energy =                            0.0000000000000000
    Total Energy =                      -1146.3062220111132774
    Molecular point group: c1
  Basis Set: 6-31G*
  Basis Set:

  -Total Gradient:
     Atom            X                  Y                   Z
    ------   -----------------  -----------------  -----------------
       1        0.000018681786    -0.000028512320    -0.000020432354
       2       -0.001192432617     0.004184131928     0.000371576404
       3        0.002724248794    -0.006345773231     0.000291584600
       4        0.000006211743     0.000002110760     0.000066707619
       5       -0.000018030969     0.000033986466    -0.000009863919
       6       -0.004943617226     0.001495047318    -0.004082710799
       7        0.000004667550    -0.000014603032    -0.000078289760
       8        0.000006866872     0.000012719915    -0.000034917957
       9        0.003359744054     0.000644001475     0.003420262199
      10       -0.000010249825     0.000002003136     0.000057383032
      11        0.000007886495     0.000027797945     0.000009427424
      12        0.000036023351    -0.000012910363     0.000009273544

  **** Optimization is complete! (in 10 steps) ****
    Final optimized geometry and variables:
    Molecular point group: c1

    Geometry (in Angstrom), charge = 0, multiplicity = 1:

    H           -2.199828751558    -1.515456963027     1.362776080326
    C           -1.804450882233    -1.050129741319     0.480093340983
    O           -0.518519301654    -0.710429908564     0.744712314526
    F           -1.867973729295    -1.896380757990    -0.544402733227
    F           -2.538714704309     0.008368489764     0.173282164754
    C            0.412963288611    -0.358152262444    -0.221736014073
    C            1.432094935252     0.507632741396     0.515222395475
    CL          -0.202175971076     0.511588058952    -1.633059594075
    H            0.936352852632    -1.233753138519    -0.568930086934
    F            2.430396474009     0.815353890371    -0.286026142474
    F            1.923800355697    -0.171697046182     1.531623353049
    F            0.902542424239     1.615551470742     0.973657410681

  Mulliken Charges: (a.u.)
   Center  Symbol    Alpha    Beta     Spin     Total
       1     H     0.40495  0.40495  0.00000  0.19009
       2     C     2.55837  2.55837  0.00000  0.88325
       3     O     4.31730  4.31730  0.00000 -0.63459
       4     F     4.68642  4.68642  0.00000 -0.37285
       5     F     4.67865  4.67865  0.00000 -0.35729
       6     C     3.02330  3.02330  0.00000 -0.04660
       7     C     2.43896  2.43896  0.00000  1.12208
       8    CL     8.49911  8.49911  0.00000  0.00178
       9     H     0.37317  0.37317  0.00000  0.25365
      10     F     4.67503  4.67503  0.00000 -0.35007
      11     F     4.67661  4.67661  0.00000 -0.35322
      12     F     4.66811  4.66811  0.00000 -0.33623

   Total alpha = 45.00000, Total beta = 45.00000, Total charge =  0.00000
