  ==> Input File <==

--------------------------------------------------------------------------
set {
	reference rhf
	basis 6-31G*
}

set_num_threads( 4 )
memory 2 gb

molecule MOL {
0 1

H	 2.461017	 -0.479687	 -0.619560
C	 1.951159	 -0.223429	 0.317018
C	 0.692068	 0.589600	 0.160137
O	 2.397812	 -0.583830	 1.357567
C	 -0.558097	 -0.297372	 0.091132
H	 0.791645	 1.202255	 -0.728243
H	 0.616171	 1.253469	 1.020572
C	 -1.850991	 0.512573	 -0.019058
H	 -0.476753	 -0.965681	 -0.762987
H	 -0.604799	 -0.930658	 0.975228
C	 -3.096943	 -0.368295	 -0.099594
H	 -1.800724	 1.150330	 -0.898172
H	 -1.931651	 1.177355	 0.838044
H	 -3.060452	 -1.020287	 -0.967456
H	 -3.996858	 0.233488	 -0.175704
H	 -3.191959	 -0.995686	 0.782074

	symmetry c1
}
set optking {
	frozen_dihedral = ("
		4 2 3 6
	")
}

ee = optimize('scf')
oeprop('DIPOLE', 'QUADRUPOLE', 'MULLIKEN_CHARGES')
f=open( 'psi4out.xyz', 'w' )
f.write( "16  " )
f.write( str(ee) + "\n" )
f.write( MOL.save_string_xyz() )
f.close()
--------------------------------------------------------------------------

    Molecular point group: c1
  Charge       = 0
  Multiplicity = 1
  Basis Set: 6-31G*
  Basis Set:
  @DF-RHF Final Energy:  -270.01866464307841
    Total Energy =                       -270.0186646430786368
    Molecular point group: c1
  Basis Set: 6-31G*
  Basis Set:
  Basis Set: 6-31G*
  Basis Set:
  @DF-RHF Final Energy:  -270.01810172440412
    Total Energy =                       -270.0181017244041186
  Basis Set: 6-31G*
  Basis Set:
  Basis Set: 6-31G*
  Basis Set:
  @DF-RHF Final Energy:  -270.01879495554044
    Total Energy =                       -270.0187949555404430
  Basis Set: 6-31G*
  Basis Set:
  Basis Set: 6-31G*
  Basis Set:
  @DF-RHF Final Energy:  -270.01910179884322
    Total Energy =                       -270.0191017988429962
  Basis Set: 6-31G*
  Basis Set:
  Basis Set: 6-31G*
  Basis Set:
  @DF-RHF Final Energy:  -270.01898461537843
    Total Energy =                       -270.0189846153783719
  Basis Set: 6-31G*
  Basis Set:
  Basis Set: 6-31G*
  Basis Set:
  @DF-RHF Final Energy:  -270.01910664580043
    Total Energy =                       -270.0191066458004343
  Basis Set: 6-31G*
  Basis Set:
  Charge       = 0
  Multiplicity = 1
  Basis Set: 6-31G*
  Basis Set:

    Orbital Energies (a.u.)
    -----------------------

    Doubly Occupied:

       1A    -20.562194     2A    -11.326546     3A    -11.235359
       4A    -11.234580     5A    -11.227917     6A    -11.217131
       7A     -1.402228     8A     -1.094396     9A     -1.017202
      10A     -0.905581    11A     -0.812368    12A     -0.788858
      13A     -0.681758    14A     -0.645662    15A     -0.628331
      16A     -0.602023    17A     -0.577905    18A     -0.551574
      19A     -0.525184    20A     -0.512349    21A     -0.486210
      22A     -0.479267    23A     -0.475664    24A     -0.408353

  @DF-RHF Final Energy:  -270.01910758483820

   => Energetics <=

    Nuclear Repulsion Energy =            230.1212002218119892
    One-Electron Energy =                -821.4833356977592302
    Two-Electron Energy =                 321.3430278911089317
    DFT Exchange-Correlation Energy =       0.0000000000000000
    Empirical Dispersion Energy =           0.0000000000000000
    PCM Polarization Energy =               0.0000000000000000
    EFP Energy =                            0.0000000000000000
    Total Energy =                       -270.0191075848383662
    Molecular point group: c1
  Basis Set: 6-31G*
  Basis Set:

  -Total Gradient:
     Atom            X                  Y                   Z
    ------   -----------------  -----------------  -----------------
       1       -0.000011171598     0.000011068757     0.000018278613
       2        0.000856740059     0.001274048534    -0.000133268769
       3        0.000316285540     0.000594299509     0.000764401798
       4       -0.000683302822    -0.001019856457    -0.000014129115
       5        0.000025077286     0.000003403932    -0.000010396258
       6       -0.000513684265    -0.000876921156    -0.000621826566
       7        0.000017794064     0.000008111660     0.000012549263
       8       -0.000007844209     0.000004262149    -0.000022714843
       9        0.000020511337     0.000017546353    -0.000011234283
      10       -0.000018353401    -0.000019490142    -0.000007284917
      11       -0.000001748247     0.000006782827     0.000039609212
      12       -0.000003779672    -0.000011739519    -0.000011004279
      13        0.000003874636     0.000010493384    -0.000012280649
      14        0.000003794091     0.000011938251    -0.000002799669
      15        0.000000562404    -0.000000517212     0.000010880769
      16       -0.000004755202    -0.000013430872     0.000001219690

  **** Optimization is complete! (in 7 steps) ****
    Final optimized geometry and variables:
    Molecular point group: c1

    Geometry (in Angstrom), charge = 0, multiplicity = 1:

    H            2.477003038922    -0.466961350617    -0.953125092567
    C            2.022832286043    -0.157783152877    -0.004916432785
    C            0.775108598783     0.682713306513    -0.113014516585
    O            2.487408091504    -0.523535412178     1.026382368029
    C           -0.469442121306    -0.216438321443    -0.204453041834
    H            0.835082142316     1.306991266084    -1.000644649226
    H            0.713004273962     1.320367522372     0.761510193434
    C           -1.765347214523     0.585006365090    -0.336019615464
    H           -0.373000085007    -0.887596024724    -1.056127758729
    H           -0.512864788646    -0.843245056608     0.681697920314
    C           -3.005249249977    -0.305001699501    -0.410022854154
    H           -1.714115158528     1.210073653194    -1.224731694303
    H           -1.855067331296     1.261621708450     0.510450485163
    H           -2.960564877396    -0.970184469987    -1.267608900729
    H           -3.908448549786     0.290010565559    -0.499762755004
    H           -3.100361189877    -0.919317882199     0.480480073828

  Mulliken Charges: (a.u.)
   Center  Symbol    Alpha    Beta     Spin     Total
       1     H     0.42986  0.42986  0.00000  0.14027
       2     C     2.83796  2.83796  0.00000  0.32408
       3     C     3.20128  3.20128  0.00000 -0.40257
       4     O     4.23655  4.23655  0.00000 -0.47310
       5     C     3.16290  3.16290  0.00000 -0.32580
       6     H     0.41542  0.41542  0.00000  0.16916
       7     H     0.40020  0.40020  0.00000  0.19960
       8     C     3.15185  3.15185  0.00000 -0.30370
       9     H     0.41913  0.41913  0.00000  0.16175
      10     H     0.40803  0.40803  0.00000  0.18394
      11     C     3.24056  3.24056  0.00000 -0.48112
      12     H     0.42139  0.42139  0.00000  0.15722
      13     H     0.41874  0.41874  0.00000  0.16251
      14     H     0.42058  0.42058  0.00000  0.15884
      15     H     0.41681  0.41681  0.00000  0.16639
      16     H     0.41873  0.41873  0.00000  0.16254

   Total alpha = 24.00000, Total beta = 24.00000, Total charge =  0.00000
