                              Psi4 1.0.54 Driver

  ==> Input File <==

--------------------------------------------------------------------------
set {
	reference rhf
	basis cc-pvtz
}

set_num_threads( 4 )
memory 2 gb

molecule MOL {
0 1

O	 3.506079	 0.293828	 -0.975913
C	 2.841259	 0.166180	 -0.000295
C	 1.542794	 -0.614730	 -0.000853
C	 3.251686	 0.780731	 1.318834
C	 0.288398	 0.247429	 0.000314
H	 1.557171	 -1.273139	 -0.866508
H	 1.557484	 -1.274998	 0.863344
C	 -0.993089	 -0.581367	 -0.000217
H	 0.305153	 0.900562	 -0.864701
H	 0.305567	 0.898805	 0.866656
C	 -2.258482	 0.271340	 0.000669
H	 -1.002280	 -1.233920	 -0.870484
H	 -1.002061	 -1.235367	 0.868958
C	 -3.544441	 -0.550271	 -0.000253
H	 -2.250545	 0.925250	 -0.867923
H	 -2.250598	 0.923423	 0.870642
C	 -4.804551	 0.308747	 0.000556
H	 -3.553737	 -1.201524	 -0.870151
H	 -3.553831	 -1.203282	 0.868313
H	 -4.842050	 0.949078	 -0.874436
H	 -5.698404	 -0.304480	 -0.000254
H	 -4.842277	 0.947103	 0.876982
H	 3.359857	 0.009332	 2.073346
H	 4.185675	 1.308395	 1.202100
H	 2.486259	 1.465911	 1.666242

	symmetry c1
}
set optking {
	frozen_dihedral = ("
		1 2 3 6
	")
}

ee,wfn = optimize('scf', return_wfn=True)
oeprop( wfn, 'DIPOLE', 'QUADRUPOLE', 'MULLIKEN_CHARGES')
f=open( 'psi4out.xyz', 'w' )
f.write( "25  " )
f.write( str(ee) + "\n" )
f.write( MOL.save_string_xyz() )
f.close()
--------------------------------------------------------------------------

    Molecular point group: c1
  Charge       = 0
  Multiplicity = 1
  Basis Set: CC-PVTZ
  Basis Set:
  @DF-RHF Final Energy:  -387.27197409731383
    Total Energy =                       -387.2719740973134321
    Molecular point group: c1
  Basis Set: CC-PVTZ
  Basis Set:
  Basis Set: CC-PVTZ
  Basis Set:
  @DF-RHF Final Energy:  -387.27261109904902
    Total Energy =                       -387.2726110990491861
  Basis Set: CC-PVTZ
  Basis Set:
  Basis Set: CC-PVTZ
  Basis Set:
  @DF-RHF Final Energy:  -387.27204043369431
    Total Energy =                       -387.2720404336946558
  Basis Set: CC-PVTZ
  Basis Set:
  Basis Set: CC-PVTZ
  Basis Set:
  @DF-RHF Final Energy:  -387.27264730406739
    Total Energy =                       -387.2726473040672772
  Basis Set: CC-PVTZ
  Basis Set:
  @DF-RHF Final Energy:  -387.27272251143489
    Total Energy =                       -387.2727225114348357
  Basis Set: CC-PVTZ
  Basis Set:
  @DF-RHF Final Energy:  -387.27273414531595
    Total Energy =                       -387.2727341453158942
  Basis Set: CC-PVTZ
  Basis Set:
  Basis Set: CC-PVTZ
  Basis Set:
  @DF-RHF Final Energy:  -387.27272847012819
    Total Energy =                       -387.2727284701287545
  Basis Set: CC-PVTZ
  Basis Set:
  Basis Set: CC-PVTZ
  Basis Set:
  @DF-RHF Final Energy:  -387.27275097655945
    Total Energy =                       -387.2727509765595642
  Basis Set: CC-PVTZ
  Basis Set:
  Charge       = 0
  Multiplicity = 1
  Basis Set: CC-PVTZ
  Basis Set:

    Orbital Energies (a.u.)
    -----------------------

    Doubly Occupied:

       1A    -20.536942     2A    -11.318958     3A    -11.229632
       4A    -11.227664     5A    -11.226177     6A    -11.221065
       7A    -11.217614     8A    -11.216976     9A    -11.209798
      10A     -1.396640    11A     -1.101622    12A     -1.061382
      13A     -1.013123    14A     -0.971840    15A     -0.896217
      16A     -0.819778    17A     -0.796992    18A     -0.733737
      19A     -0.669896    20A     -0.649712    21A     -0.640390
      22A     -0.612412    23A     -0.607911    24A     -0.588963
      25A     -0.567837    26A     -0.558801    27A     -0.543592
      28A     -0.539345    29A     -0.509630    30A     -0.503467
      31A     -0.490439    32A     -0.479678    33A     -0.468933
      34A     -0.468399    35A     -0.456683    36A     -0.398139

  @DF-RHF Final Energy:  -387.27275166214082

   => Energetics <=

    Nuclear Repulsion Energy =            439.7294160180028371
    One-Electron Energy =               -1396.1035720975783079
    Two-Electron Energy =                 569.1014044174353330
    DFT Exchange-Correlation Energy =       0.0000000000000000
    Empirical Dispersion Energy =           0.0000000000000000
    PCM Polarization Energy =               0.0000000000000000
    EFP Energy =                            0.0000000000000000
    Total Energy =                       -387.2727516621400810
    Molecular point group: c1
  Basis Set: CC-PVTZ
  Basis Set:

  -Total Gradient:
     Atom            X                  Y                   Z
    ------   -----------------  -----------------  -----------------
       1        0.000536257657    -0.000762493202     0.000123732095
       2       -0.000820974342     0.001260588675    -0.000228091764
       3        0.000778078382    -0.001114571481     0.000665350485
       4       -0.000006823059    -0.000018341863    -0.000139686913
       5       -0.000069008257     0.000021444201     0.000006641792
       6       -0.000447676646     0.000625045496    -0.000487716889
       7       -0.000003307178     0.000001206370    -0.000012353007
       8        0.000039702133     0.000010240964     0.000003885765
       9        0.000012307855    -0.000008521372     0.000007675608
      10        0.000008275624     0.000001078766    -0.000002158289
      11       -0.000009929160     0.000002951013    -0.000002839225
      12       -0.000002071103    -0.000007677378    -0.000002179365
      13       -0.000002772764    -0.000003049825     0.000002037535
      14        0.000001139061     0.000002036042     0.000001816032
      15       -0.000002102038     0.000004135909    -0.000001213998
      16        0.000000103724    -0.000000583667     0.000000157038
      17        0.000002022508     0.000001327516    -0.000004177129
      18       -0.000000579665    -0.000001364958    -0.000001092506
      19        0.000001449631    -0.000001494427     0.000001811901
      20       -0.000001078003     0.000001738518    -0.000000524402
      21       -0.000001628767    -0.000001149034    -0.000000169148
      22       -0.000000204608     0.000000199439     0.000001580435
      23       -0.000008647857    -0.000011705621     0.000024988332
      24        0.000006524764     0.000007026763     0.000023051473
      25       -0.000009057885    -0.000008066842     0.000019474137

  **** Optimization is complete! (in 9 steps) ****
    Final optimized geometry and variables:
    Molecular point group: c1

    Geometry (in Angstrom), charge = 0, multiplicity = 1:

    O            3.457581106618     0.305898289519    -1.029490007414
    C            2.851039431405     0.150718455036    -0.019703658285
    C            1.584436536318    -0.680251535199     0.015485802600
    C            3.321703927980     0.760689749801     1.280634072118
    C            0.321153522008     0.190046528926    -0.003407752732
    H            1.594532088999    -1.319389190707    -0.857175622289
    H            1.583240169892    -1.305743638382     0.903028676874
    C           -0.959519983423    -0.639815168710    -0.021156987761
    H            0.350526296672     0.830123595808    -0.879581374352
    H            0.308192854036     0.846884282287     0.861092562589
    C           -2.226172659279     0.210466669504    -0.052579942387
    H           -0.946086414888    -1.297771863103    -0.885927888870
    H           -0.980938735058    -1.285568410620     0.853367868607
    C           -3.509096033879    -0.615711053674    -0.074646227840
    H           -2.202250478528     0.857727946593    -0.925854668378
    H           -2.239591537259     0.868637826459     0.813103616922
    C           -4.771517095326     0.239179593791    -0.106547100772
    H           -3.497377142891    -1.272691464445    -0.939923275192
    H           -3.534404619582    -1.262641798971     0.798058920223
    H           -4.792708985553     0.873041015995    -0.986748870890
    H           -5.662823970631    -0.377349737364    -0.121999976888
    H           -4.830259183756     0.883384527480     0.764498206027
    H            3.672443629402    -0.031386504066     1.934733240172
    H            4.129448066585     1.450959005569     1.091899272819
    H            2.513743102240     1.267236854036     1.794100039946

  Mulliken Charges: (a.u.)
   Center  Symbol    Alpha    Beta     Spin     Total
       1     O     4.17607  4.17607  0.00000 -0.35213
       2     C     2.85885  2.85885  0.00000  0.28229
       3     C     3.09506  3.09506  0.00000 -0.19011
       4     C     3.15581  3.15581  0.00000 -0.31163
       5     C     3.10641  3.10641  0.00000 -0.21281
       6     H     0.43871  0.43871  0.00000  0.12258
       7     H     0.44974  0.44974  0.00000  0.10052
       8     C     3.08958  3.08958  0.00000 -0.17915
       9     H     0.44292  0.44292  0.00000  0.11416
      10     H     0.45099  0.45099  0.00000  0.09802
      11     C     3.08631  3.08631  0.00000 -0.17262
      12     H     0.45071  0.45071  0.00000  0.09858
      13     H     0.45399  0.45399  0.00000  0.09201
      14     C     3.08496  3.08496  0.00000 -0.16991
      15     H     0.45307  0.45307  0.00000  0.09387
      16     H     0.45523  0.45523  0.00000  0.08954
      17     C     3.15034  3.15034  0.00000 -0.30068
      18     H     0.45366  0.45366  0.00000  0.09268
      19     H     0.45462  0.45462  0.00000  0.09075
      20     H     0.45445  0.45445  0.00000  0.09109
      21     H     0.44787  0.44787  0.00000  0.10427
      22     H     0.45521  0.45521  0.00000  0.08957
      23     H     0.44905  0.44905  0.00000  0.10191
      24     H     0.43537  0.43537  0.00000  0.12926
      25     H     0.45102  0.45102  0.00000  0.09796

   Total alpha = 36.00000, Total beta = 36.00000, Total charge =  0.00000

*** Psi4 exiting successfully. Buy a developer a beer!
