  ==> Input File <==

--------------------------------------------------------------------------
set {
	reference rhf
	basis 6-31G*
}

set_num_threads( 1 )
memory 2 gb

molecule MOL {
0 1

H	 -1.903591	 0.639431	 -2.124864
C	 -1.404606	 -0.254883	 -1.756956
O	 -1.392607	 -0.295399	 -0.366433
H	 -1.944804	 -1.124918	 -2.103896
H	 -0.395963	 -0.280702	 -2.167321
C	 -0.719715	 0.768384	 0.229244
C	 0.719720	 0.768376	 -0.229267
H	 -1.185038	 1.714362	 -0.050570
H	 -0.750528	 0.687237	 1.313896
O	 1.392611	 -0.295398	 0.366430
H	 0.750534	 0.687200	 -1.313918
H	 1.185043	 1.714359	 0.050526
C	 2.706965	 -0.449871	 -0.062409
H	 2.756559	 -0.644779	 -1.131878
H	 3.305899	 0.433456	 0.155466
H	 3.125548	 -1.294566	 0.467107

	symmetry c1
}
set optking {
	frozen_dihedral = ("
		3 6 7 11,
		7 10 13 14
	")
}

ee = energy('scf')
oeprop('DIPOLE', 'QUADRUPOLE', 'MULLIKEN_CHARGES')
f=open( 'psi4out.xyz', 'w' )
f.write( "16  " )
f.write( str(ee) + "\n" )
f.write( MOL.save_string_xyz() )
f.close()
--------------------------------------------------------------------------

    Molecular point group: c1

    Geometry (in Angstrom), charge = 0, multiplicity = 1:

       Center              X                  Y                   Z               Mass
    ------------   -----------------  -----------------  -----------------  -----------------
           H         -2.132426513876     0.605176797793    -1.805192574687     1.007825032070
           C         -1.633441513876    -0.289137202207    -1.437284574687    12.000000000000
           O         -1.621442513876    -0.329653202207    -0.046761574687    15.994914619560
           H         -2.173639513876    -1.159172202207    -1.784224574687     1.007825032070
           H         -0.624798513876    -0.314956202207    -1.847649574687     1.007825032070
           C         -0.948550513876     0.734129797793     0.548915425313    12.000000000000
           C          0.490884486124     0.734121797793     0.090404425313    12.000000000000
           H         -1.413873513876     1.680107797793     0.269101425313     1.007825032070
           H         -0.979363513876     0.652982797793     1.633567425313     1.007825032070
           O          1.163775486124    -0.329652202207     0.686101425313    15.994914619560
           H          0.521698486124     0.652945797793    -0.994246574687     1.007825032070
           H          0.956207486124     1.680104797793     0.370197425313     1.007825032070
           C          2.478129486124    -0.484125202207     0.257262425313    12.000000000000
           H          2.527723486124    -0.679033202207    -0.812206574687     1.007825032070
           H          3.077063486124     0.399201797793     0.475137425313     1.007825032070
           H          2.896712486124    -1.328820202207     0.786778425313     1.007825032070

  Charge       = 0
  Multiplicity = 1
  Basis Set: 6-31G*
  Basis Set:

    Orbital Energies (a.u.)
    -----------------------

    Doubly Occupied:

       1A    -20.557198     2A    -20.553927     3A    -11.269808
       4A    -11.267967     5A    -11.267001     6A    -11.264402
       7A     -1.392384     8A     -1.372174     9A     -1.027340
      10A     -0.947874    11A     -0.902701    12A     -0.814076
      13A     -0.700336    14A     -0.681365    15A     -0.657468
      16A     -0.636445    17A     -0.630259    18A     -0.599043
      19A     -0.548418    20A     -0.534671    21A     -0.524651
      22A     -0.490967    23A     -0.455653    24A     -0.420707
      25A     -0.407663

  @DF-RHF Final Energy:  -306.96654130302284

   => Energetics <=

    Nuclear Repulsion Energy =            265.2850750531812309
    One-Electron Energy =                -944.6543162046561974
    Two-Electron Energy =                 372.4026998484515616
    DFT Exchange-Correlation Energy =       0.0000000000000000
    Empirical Dispersion Energy =           0.0000000000000000
    PCM Polarization Energy =               0.0000000000000000
    EFP Energy =                            0.0000000000000000
    Total Energy =                       -306.9665413030234049

  Mulliken Charges: (a.u.)
   Center  Symbol    Alpha    Beta     Spin     Total
       1     H     0.43132  0.43132  0.00000  0.13736
       2     C     3.08602  3.08602  0.00000 -0.17203
       3     O     4.29707  4.29707  0.00000 -0.59413
       4     H     0.40897  0.40897  0.00000  0.18206
       5     H     0.42716  0.42716  0.00000  0.14567
       6     C     2.99830  2.99830  0.00000  0.00339
       7     C     3.00542  3.00542  0.00000 -0.01083
       8     H     0.43088  0.43088  0.00000  0.13825
       9     H     0.40403  0.40403  0.00000  0.19194
      10     O     4.29950  4.29950  0.00000 -0.59900
      11     H     0.42941  0.42941  0.00000  0.14118
      12     H     0.43127  0.43127  0.00000  0.13746
      13     C     3.07917  3.07917  0.00000 -0.15834
      14     H     0.43058  0.43058  0.00000  0.13885
      15     H     0.43067  0.43067  0.00000  0.13865
      16     H     0.41024  0.41024  0.00000  0.17952

   Total alpha = 25.00000, Total beta = 25.00000, Total charge = -0.00000
