  ==> Input File <==

--------------------------------------------------------------------------
set {
	reference rhf
	basis 6-31G*
}

set_num_threads( 4 )
memory 2 gb

molecule MOL {
0 1

H	 2.591676	 2.013956	 0.335017
O	 3.341076	 1.666752	 -0.126416
C	 3.569581	 0.339145	 0.272707
C	 2.539767	 -0.640285	 -0.279495
H	 4.553106	 0.084646	 -0.100901
H	 3.608576	 0.269204	 1.359154
C	 1.115811	 -0.397273	 0.226630
H	 2.556196	 -0.582511	 -1.364741
H	 2.852081	 -1.648031	 -0.010655
C	 0.115918	 -1.429151	 -0.302766
H	 0.797950	 0.599468	 -0.066350
H	 1.109961	 -0.420744	 1.316472
C	 0.747804	 -2.702857	 -0.876121
H	 -0.576461	 -1.697756	 0.493042
H	 -0.483988	 -0.962120	 -1.081030
C	 1.469409	 -3.582013	 0.148988
H	 -0.036933	 -3.291719	 -1.346487
H	 1.440790	 -2.433495	 -1.671766
C	 1.990874	 -4.890149	 -0.449586
H	 0.789586	 -3.809155	 0.968962
H	 2.303712	 -3.038996	 0.586450
C	 2.717209	 -5.766694	 0.570104
H	 1.159637	 -5.447104	 -0.876591
H	 2.662778	 -4.665318	 -1.275347
H	 2.061402	 -6.036106	 1.393244
H	 3.072825	 -6.686561	 0.116212
H	 3.576881	 -5.251192	 0.989135

	symmetry c1
}
set optking {
	frozen_dihedral = ("
		14 10 7 4
	")
}

ee = optimize('scf')
oeprop('DIPOLE', 'QUADRUPOLE', 'MULLIKEN_CHARGES')
f=open( 'psi4out.xyz', 'w' )
f.write( "27  " )
f.write( str(ee) + "\n" )
f.write( MOL.save_string_xyz() )
f.close()
--------------------------------------------------------------------------

    Molecular point group: c1
  Charge       = 0
  Multiplicity = 1
  Basis Set: 6-31G*
  Basis Set:
  @DF-RHF Final Energy:  -388.26290483367444
    Total Energy =                       -388.2629048336748383
    Molecular point group: c1
  Basis Set: 6-31G*
  Basis Set:
  Basis Set: 6-31G*
  Basis Set:
  @DF-RHF Final Energy:  -388.27082388067350
    Total Energy =                       -388.2708238806728787
  Basis Set: 6-31G*
  Basis Set:
  Basis Set: 6-31G*
  Basis Set:
  @DF-RHF Final Energy:  -388.27229343694711
    Total Energy =                       -388.2722934369475070
  Basis Set: 6-31G*
  Basis Set:
  Basis Set: 6-31G*
  Basis Set:
  @DF-RHF Final Energy:  -388.27258104079891
    Total Energy =                       -388.2725810407993094
  Basis Set: 6-31G*
  Basis Set:
  @DF-RHF Final Energy:  -388.27263224832348
    Total Energy =                       -388.2726322483233616
  Basis Set: 6-31G*
  Basis Set:
  @DF-RHF Final Energy:  -388.27265955438384
    Total Energy =                       -388.2726595543838357
  Basis Set: 6-31G*
  Basis Set:
  Basis Set: 6-31G*
  Basis Set:
  @DF-RHF Final Energy:  -388.27266259311239
    Total Energy =                       -388.2726625931119315
  Basis Set: 6-31G*
  Basis Set:
  Basis Set: 6-31G*
  Basis Set:
  @DF-RHF Final Energy:  -388.27266792213368
    Total Energy =                       -388.2726679221334507
  Basis Set: 6-31G*
  Basis Set:
  Charge       = 0
  Multiplicity = 1
  Basis Set: 6-31G*
  Basis Set:

    Orbital Energies (a.u.)
    -----------------------

    Doubly Occupied:

       1A    -20.552373     2A    -11.267339     3A    -11.220954
       4A    -11.217897     5A    -11.216037     6A    -11.214920
       7A    -11.214604     8A    -11.214013     9A    -11.209595
      10A     -1.359198    11A     -1.093386    12A     -1.058709
      13A     -1.009364    14A     -0.950445    15A     -0.887469
      16A     -0.833517    17A     -0.798067    18A     -0.764156
      19A     -0.695186    20A     -0.655401    21A     -0.636574
      22A     -0.614733    23A     -0.602699    24A     -0.584750
      25A     -0.568664    26A     -0.554444    27A     -0.549248
      28A     -0.522528    29A     -0.515685    30A     -0.489696
      31A     -0.487287    32A     -0.477835    33A     -0.467855
      34A     -0.455731    35A     -0.447010    36A     -0.436778
      37A     -0.425413

  @DF-RHF Final Energy:  -388.27266883950972

   => Energetics <=

    Nuclear Repulsion Energy =            468.6406121684879054
    One-Electron Energy =               -1455.2874431642956097
    Two-Electron Energy =                 598.3741621562980981
    DFT Exchange-Correlation Energy =       0.0000000000000000
    Empirical Dispersion Energy =           0.0000000000000000
    PCM Polarization Energy =               0.0000000000000000
    EFP Energy =                            0.0000000000000000
    Total Energy =                       -388.2726688395096062
    Molecular point group: c1
  Basis Set: 6-31G*
  Basis Set:

  -Total Gradient:
     Atom            X                  Y                   Z
    ------   -----------------  -----------------  -----------------
       1       -0.000001755538     0.000008235090    -0.000004530281
       2       -0.000014831736     0.000026291454     0.000020189419
       3       -0.000011422446     0.000000408427    -0.000037372938
       4        0.001536575427    -0.003246121231     0.004030169811
       5        0.000004507820    -0.000017387671     0.000003157566
       6       -0.000001347897     0.000003396864    -0.000001031126
       7       -0.001213086611     0.003552743163    -0.005552375016
       8        0.000006305027     0.000016601063     0.000007646163
       9       -0.000001960489    -0.000009162051     0.000003236967
      10       -0.005081358065     0.004737261799     0.000112470269
      11        0.000000555920    -0.000002164784     0.000006184324
      12       -0.000005555455    -0.000003913995    -0.000003898427
      13        0.000060735191     0.000017055283     0.000030735594
      14        0.004738460178    -0.005059508479     0.001387866446
      15       -0.000007847506     0.000053301717     0.000006793783
      16       -0.000012483969    -0.000003772773    -0.000023033650
      17        0.000017870560    -0.000015972305     0.000037512151
      18       -0.000002133479    -0.000001018412    -0.000020669467
      19        0.000000675532    -0.000005190462     0.000023125590
      20       -0.000010508926    -0.000009174949     0.000010699475
      21       -0.000024632776    -0.000006765132    -0.000023938741
      22        0.000010703367    -0.000018386923    -0.000015367915
      23        0.000005799739    -0.000010392034    -0.000000018324
      24        0.000000414580    -0.000004958269    -0.000002131629
      25        0.000000018183     0.000005911166    -0.000002357457
      26        0.000002186658    -0.000006707520     0.000007402526
      27        0.000004116708    -0.000000609041    -0.000000465112

  **** Optimization is complete! (in 9 steps) ****
    Final optimized geometry and variables:
    Molecular point group: c1

    Geometry (in Angstrom), charge = 0, multiplicity = 1:

    H            0.426160034570     4.043200025716     0.431211772661
    O            1.183212038324     3.796381015391    -0.079465891809
    C            1.591874546129     2.499553947376     0.273688976443
    C            0.675745883392     1.406556823217    -0.268692092567
    H            2.583945497897     2.380508831975    -0.142763755812
    H            1.683062029199     2.409932359594     1.355640686898
    C           -0.738545535521     1.467056992104     0.318612085275
    H            0.641013703084     1.501406679090    -1.350800814598
    H            1.136463868491     0.449189957159    -0.047995206076
    C           -1.754801797252     0.390812213597    -0.149634370936
    H           -1.165946971318     2.443491367899     0.110386745099
    H           -0.643352343667     1.408691527491     1.401814209454
    C           -1.187077906690    -0.902916127755    -0.758567076810
    H           -2.340427897181     0.080139129951     0.711443048889
    H           -2.438810292461     0.834993389858    -0.865348722982
    C           -0.589825291344    -1.869505004473     0.269166054952
    H           -2.000559056410    -1.414765792385    -1.268372973718
    H           -0.452998074341    -0.676718477713    -1.526379316834
    C           -0.001228687347    -3.131945203681    -0.363599792994
    H           -1.367162945665    -2.153471473374     0.977074721163
    H            0.180513992135    -1.373310630176     0.854884366178
    C            0.562807255037    -4.110765873120     0.665763144194
    H           -0.768568051175    -3.630210250840    -0.952371270088
    H            0.784018069608    -2.851600814328    -1.062567930562
    H           -0.207327920262    -4.438143044508     1.358547408469
    H            0.972806722806    -4.994103868493     0.185968500945
    H            1.357089685550    -3.652809253496     1.248731032313

  Mulliken Charges: (a.u.)
   Center  Symbol    Alpha    Beta     Spin     Total
       1     H     0.27972  0.27972  0.00000  0.44056
       2     O     4.37112  4.37112  0.00000 -0.74224
       3     C     2.99695  2.99695  0.00000  0.00610
       4     C     3.16529  3.16529  0.00000 -0.33058
       5     H     0.41441  0.41441  0.00000  0.17118
       6     H     0.43222  0.43222  0.00000  0.13556
       7     C     3.16428  3.16428  0.00000 -0.32856
       8     H     0.41479  0.41479  0.00000  0.17042
       9     H     0.42092  0.42092  0.00000  0.15815
      10     C     3.15553  3.15553  0.00000 -0.31105
      11     H     0.42299  0.42299  0.00000  0.15402
      12     H     0.42418  0.42418  0.00000  0.15165
      13     C     3.15790  3.15790  0.00000 -0.31580
      14     H     0.42095  0.42095  0.00000  0.15809
      15     H     0.41798  0.41798  0.00000  0.16404
      16     C     3.15280  3.15280  0.00000 -0.30559
      17     H     0.42081  0.42081  0.00000  0.15838
      18     H     0.41974  0.41974  0.00000  0.16053
      19     C     3.15166  3.15166  0.00000 -0.30332
      20     H     0.42395  0.42395  0.00000  0.15209
      21     H     0.42397  0.42397  0.00000  0.15205
      22     C     3.23919  3.23919  0.00000 -0.47838
      23     H     0.42264  0.42264  0.00000  0.15472
      24     H     0.42285  0.42285  0.00000  0.15429
      25     H     0.42175  0.42175  0.00000  0.15649
      26     H     0.41906  0.41906  0.00000  0.16188
      27     H     0.42233  0.42233  0.00000  0.15534

   Total alpha = 37.00000, Total beta = 37.00000, Total charge =  0.00000
