  ==> Input File <==

--------------------------------------------------------------------------
set {
	reference rhf
	basis cc-pvtz
}

set_num_threads( 4 )
memory 2 gb

molecule MOL {
0 1

H	 -3.294565	 0.569785	 0.000000
C	 -2.246225	 0.343737	 0.000000
C	 -1.809462	 -0.973484	 0.000000
C	 -1.312577	 1.353775	 0.000000
H	 -2.523539	 -1.775124	 0.000000
C	 -0.467257	 -1.267606	 0.000000
H	 -1.631287	 2.379013	 0.000000
C	 0.046966	 1.074396	 0.000000
H	 -0.119372	 -2.281828	 0.000000
C	 0.471772	 -0.241514	 0.000000
H	 0.748162	 1.882966	 0.000000
O	 1.760432	 -0.625184	 0.000000
C	 2.428508	 -0.824089	 -1.209244
H	 1.963417	 -1.608123	 -1.796346
H	 3.433465	 -1.123292	 -0.956448
H	 2.468000	 0.086658	 -1.796346

	symmetry c1
}
set optking {
	frozen_dihedral = ("
		13 12 10 8
	")
}

ee = optimize('scf')
oeprop('DIPOLE', 'QUADRUPOLE', 'MULLIKEN_CHARGES')
f=open( 'psi4out.xyz', 'w' )
f.write( "16  " )
f.write( str(ee) + "\n" )
f.write( MOL.save_string_xyz() )
f.close()
--------------------------------------------------------------------------

    Molecular point group: c1
  Charge       = 0
  Multiplicity = 1
  Basis Set: CC-PVTZ
  Basis Set:
  @DF-RHF Final Energy:  -344.69872671528793
    Total Energy =                       -344.6987267152878758
    Molecular point group: c1
  Basis Set: CC-PVTZ
  Basis Set:
  Basis Set: CC-PVTZ
  Basis Set:
  @DF-RHF Final Energy:  -344.70086117908949
    Total Energy =                       -344.7008611790892587
  Basis Set: CC-PVTZ
  Basis Set:
  Basis Set: CC-PVTZ
  Basis Set:
  @DF-RHF Final Energy:  -344.70106760949989
    Total Energy =                       -344.7010676094997166
  Basis Set: CC-PVTZ
  Basis Set:
  Basis Set: CC-PVTZ
  Basis Set:
  @DF-RHF Final Energy:  -344.70109830221747
    Total Energy =                       -344.7010983022172468
  Basis Set: CC-PVTZ
  Basis Set:
  Basis Set: CC-PVTZ
  Basis Set:
  @DF-RHF Final Energy:  -344.70110300425614
    Total Energy =                       -344.7011030042561970
  Basis Set: CC-PVTZ
  Basis Set:
  Charge       = 0
  Multiplicity = 1
  Basis Set: CC-PVTZ
  Basis Set:

    Orbital Energies (a.u.)
    -----------------------

    Doubly Occupied:

       1A    -20.566319     2A    -11.285190     3A    -11.273892
       4A    -11.232062     5A    -11.231961     6A    -11.224502
       7A    -11.224373     8A    -11.224271     9A     -1.404788
      10A     -1.153139    11A     -1.021175    12A     -1.019150
      13A     -0.934946    14A     -0.839343    15A     -0.810361
      16A     -0.718169    17A     -0.669637    18A     -0.668235
      19A     -0.638161    20A     -0.614362    21A     -0.602377
      22A     -0.589094    23A     -0.533113    24A     -0.509068
      25A     -0.507900    26A     -0.488976    27A     -0.439845
      28A     -0.340450    29A     -0.326911

  @DF-RHF Final Energy:  -344.70110375293575

   => Energetics <=

    Nuclear Repulsion Energy =            348.7862589114985212
    One-Electron Energy =               -1158.7911852875838576
    Two-Electron Energy =                 465.3038226231497561
    DFT Exchange-Correlation Energy =       0.0000000000000000
    Empirical Dispersion Energy =           0.0000000000000000
    PCM Polarization Energy =               0.0000000000000000
    EFP Energy =                            0.0000000000000000
    Total Energy =                       -344.7011037529355804
    Molecular point group: c1
  Basis Set: CC-PVTZ
  Basis Set:

  -Total Gradient:
     Atom            X                  Y                   Z
    ------   -----------------  -----------------  -----------------
       1       -0.000001434961    -0.000019474675    -0.000003924142
       2        0.000007071693     0.000049981763    -0.000025973990
       3        0.000008782049    -0.000035041184     0.000020250629
       4       -0.000017799990    -0.000050105466     0.000034820298
       5       -0.000028388891     0.000005180222    -0.000001297508
       6       -0.000004177509    -0.000081408047    -0.000008996737
       7        0.000010643723     0.000001665692    -0.000002758406
       8        0.000060293686    -0.000036528794    -0.000026955619
       9       -0.000007952585     0.000029144307    -0.000004802540
      10       -0.000130455629     0.000184831206     0.000031742716
      11        0.000000819480    -0.000005081656    -0.000007602340
      12        0.000086026903    -0.000048372319     0.000044312737
      13        0.000016077770     0.000014140123    -0.000097573565
      14        0.000001796256     0.000000076585     0.000012285712
      15       -0.000005037843     0.000003303347     0.000014057097
      16        0.000003735850    -0.000012311106     0.000022415660

  **** Optimization is complete! (in 6 steps) ****
    Final optimized geometry and variables:
    Molecular point group: c1

    Geometry (in Angstrom), charge = 0, multiplicity = 1:

    H           -3.226690707342     0.775314356333     0.152325554813
    C           -2.183578199231     0.524541769716     0.156443580587
    C           -1.786143893574    -0.799142857803     0.179490817450
    C           -1.227542477239     1.522756113813     0.147573033567
    H           -2.522154869817    -1.580357589040     0.195049375044
    C           -0.443473221235    -1.126108319127     0.188428529467
    H           -1.527478572953     2.553371124358     0.138412065343
    C            0.117030620687     1.203740598745     0.156654116578
    H           -0.124392229891    -2.149968901659     0.218903120109
    C            0.506836669537    -0.122309952693     0.173545683954
    H            0.866515353465     1.971463171119     0.163125948731
    O            1.827707954613    -0.440855516496     0.216680642471
    C            2.463756070310    -0.588820821561    -1.025478795083
    H            2.009129962564    -1.384796550221    -1.605400324941
    H            3.494674945381    -0.838020948510    -0.824717949863
    H            2.422840680664     0.331082290382    -1.598635325928

  Mulliken Charges: (a.u.)
   Center  Symbol    Alpha    Beta     Spin     Total
       1     H     0.42352  0.42352  0.00000  0.15295
       2     C     3.08805  3.08805  0.00000 -0.17611
       3     C     3.06645  3.06645  0.00000 -0.13290
       4     C     3.06669  3.06669  0.00000 -0.13339
       5     H     0.42206  0.42206  0.00000  0.15588
       6     C     3.11583  3.11583  0.00000 -0.23165
       7     H     0.42208  0.42208  0.00000  0.15584
       8     C     3.11614  3.11614  0.00000 -0.23227
       9     H     0.41801  0.41801  0.00000  0.16399
      10     C     2.84921  2.84921  0.00000  0.30158
      11     H     0.41816  0.41816  0.00000  0.16369
      12     O     4.18518  4.18518  0.00000 -0.37035
      13     C     3.03211  3.03211  0.00000 -0.06421
      14     H     0.46556  0.46556  0.00000  0.06888
      15     H     0.44541  0.44541  0.00000  0.10918
      16     H     0.46555  0.46555  0.00000  0.06890

   Total alpha = 29.00000, Total beta = 29.00000, Total charge =  0.00000
