                              Psi4 1.0.54 Driver

  ==> Input File <==

--------------------------------------------------------------------------
set {
	reference rhf
	basis cc-pvtz
}

set_num_threads( 4 )
memory 2 gb

molecule MOL {
0 1

H	 -1.799875	 0.043712	 -0.788494
N	 -1.173824	 -0.310545	 -0.096857
C	 -0.022588	 0.563366	 0.065815
H	 -1.687926	 -0.384581	 0.756272
C	 1.270420	 -0.230572	 -0.014245
H	 -0.045354	 1.293678	 -0.735129
H	 -0.043155	 1.123061	 1.001180
H	 1.336273	 -0.754933	 -0.959364
H	 2.130728	 0.422015	 0.082222
H	 1.323344	 -0.967006	 0.781773

	symmetry c1
}
set optking {
	frozen_dihedral = ("
		1 2 3 6
	")
}

ee,wfn = optimize('scf', return_wfn=True)
oeprop( wfn, 'DIPOLE', 'QUADRUPOLE', 'MULLIKEN_CHARGES')
f=open( 'psi4out.xyz', 'w' )
f.write( "10  " )
f.write( str(ee) + "\n" )
f.write( MOL.save_string_xyz() )
f.close()
--------------------------------------------------------------------------

    Molecular point group: c1
  Charge       = 0
  Multiplicity = 1
  Basis Set: CC-PVTZ
  Basis Set:
  @DF-RHF Final Energy:  -134.30141525109721
    Total Energy =                       -134.3014152510972394
    Molecular point group: c1
  Basis Set: CC-PVTZ
  Basis Set:
  Basis Set: CC-PVTZ
  Basis Set:
  @DF-RHF Final Energy:  -134.30183126427914
    Total Energy =                       -134.3018312642790875
  Basis Set: CC-PVTZ
  Basis Set:
  Basis Set: CC-PVTZ
  Basis Set:
  @DF-RHF Final Energy:  -134.30196075426397
    Total Energy =                       -134.3019607542639733
  Basis Set: CC-PVTZ
  Basis Set:
  Basis Set: CC-PVTZ
  Basis Set:
  @DF-RHF Final Energy:  -134.30196510461224
    Total Energy =                       -134.3019651046122931
  Basis Set: CC-PVTZ
  Basis Set:
  Charge       = 0
  Multiplicity = 1
  Basis Set: CC-PVTZ
  Basis Set:

    Orbital Energies (a.u.)
    -----------------------

    Doubly Occupied:

       1A    -15.524683     2A    -11.241507     3A    -11.199036
       4A     -1.174231     5A     -0.986902     6A     -0.821255
       7A     -0.674181     8A     -0.624461     9A     -0.570881
      10A     -0.526527    11A     -0.511302    12A     -0.477324
      13A     -0.381080

  @DF-RHF Final Energy:  -134.30196580146406

   => Energetics <=

    Nuclear Repulsion Energy =             83.1545576098932742
    One-Electron Energy =                -345.4863068779035871
    Two-Electron Energy =                 128.0297834665461778
    DFT Exchange-Correlation Energy =       0.0000000000000000
    Empirical Dispersion Energy =           0.0000000000000000
    PCM Polarization Energy =               0.0000000000000000
    EFP Energy =                            0.0000000000000000
    Total Energy =                       -134.3019658014641209
    Molecular point group: c1
  Basis Set: CC-PVTZ
  Basis Set:

  -Total Gradient:
     Atom            X                  Y                   Z
    ------   -----------------  -----------------  -----------------
       1        0.000868077662    -0.000875321750    -0.001207542557
       2       -0.001331038786     0.001307777876     0.001721868037
       3        0.001333630615    -0.001390952865    -0.001404521099
       4        0.000004444701    -0.000000432573     0.000011653065
       5       -0.000007705491     0.000012529066     0.000017794044
       6       -0.000848071454     0.000940815422     0.000880882728
       7       -0.000015300729     0.000001344294     0.000004726277
       8        0.000000218451     0.000000494836     0.000000800457
       9        0.000003135571    -0.000009633005    -0.000007744183
      10       -0.000007390540     0.000013378699    -0.000017916768

  **** Optimization is complete! (in 5 steps) ****
    Final optimized geometry and variables:
    Molecular point group: c1

    Geometry (in Angstrom), charge = 0, multiplicity = 1:

    H           -1.803915410505     0.042785081348    -0.805017587768
    N           -1.178673586277    -0.309624122188    -0.116050767264
    C           -0.013527370867     0.550245063507     0.065313108640
    H           -1.686997045857    -0.445117790966     0.728896772754
    C            1.283355768021    -0.244016726000     0.043315299523
    H            0.002977048716     1.298635326572    -0.719304526077
    H           -0.078346484297     1.103816593639     0.998701208852
    H            1.392786291168    -0.765664505000    -0.899714698228
    H            2.141095730123     0.406909598684     0.181217533807
    H            1.289674347817    -0.985546651863     0.834251459759

  Mulliken Charges: (a.u.)
   Center  Symbol    Alpha    Beta     Spin     Total
       1     H     0.42479  0.42479  0.00000  0.15041
       2     N     3.69771  3.69771  0.00000 -0.39542
       3     C     3.03386  3.03386  0.00000 -0.06773
       4     H     0.42687  0.42687  0.00000  0.14627
       5     C     3.12155  3.12155  0.00000 -0.24309
       6     H     0.45783  0.45783  0.00000  0.08434
       7     H     0.46148  0.46148  0.00000  0.07703
       8     H     0.45573  0.45573  0.00000  0.08854
       9     H     0.46154  0.46154  0.00000  0.07692
      10     H     0.45864  0.45864  0.00000  0.08272

   Total alpha = 13.00000, Total beta = 13.00000, Total charge = -0.00000

*** Psi4 exiting successfully. Buy a developer a beer!
