                              Psi4 1.0.54 Driver

  ==> Input File <==

--------------------------------------------------------------------------
set {
	reference rhf
	basis cc-pvtz
}

set_num_threads( 4 )
memory 2 gb

molecule MOL {
0 1

H	 2.268895	 -0.209387	 -0.454459
O	 1.583947	 -0.677544	 -0.001533
C	 0.489979	 0.078084	 0.002623
C	 -0.763662	 -0.754014	 0.000816
O	 0.539051	 1.259395	 -0.000088
C	 -2.038001	 0.074705	 -0.000833
H	 -0.712945	 -1.405886	 -0.864342
H	 -0.715137	 -1.405770	 0.866182
H	 -2.087267	 0.710831	 -0.874232
H	 -2.903419	 -0.576199	 -0.001922
H	 -2.089467	 0.710909	 0.872389

	symmetry c1
}
set optking {
	frozen_dihedral = ("
		1 2 3 5
	")
}

ee,wfn = optimize('scf', return_wfn=True)
oeprop( wfn, 'DIPOLE', 'QUADRUPOLE', 'MULLIKEN_CHARGES')
f=open( 'psi4out.xyz', 'w' )
f.write( "11  " )
f.write( str(ee) + "\n" )
f.write( MOL.save_string_xyz() )
f.close()
--------------------------------------------------------------------------

    Molecular point group: c1
  Charge       = 0
  Multiplicity = 1
  Basis Set: CC-PVTZ
  Basis Set:
  @DF-RHF Final Energy:  -266.94822801436408
    Total Energy =                       -266.9482280143640764
    Molecular point group: c1
  Basis Set: CC-PVTZ
  Basis Set:
  Basis Set: CC-PVTZ
  Basis Set:
  @DF-RHF Final Energy:  -266.94489399747340
    Total Energy =                       -266.9448939974734571
  Basis Set: CC-PVTZ
  Basis Set:
  Basis Set: CC-PVTZ
  Basis Set:
  @DF-RHF Final Energy:  -266.94870255709645
    Total Energy =                       -266.9487025570963397
  Basis Set: CC-PVTZ
  Basis Set:
  Basis Set: CC-PVTZ
  Basis Set:
  @DF-RHF Final Energy:  -266.94877107830911
    Total Energy =                       -266.9487710783092780
  Basis Set: CC-PVTZ
  Basis Set:
  Basis Set: CC-PVTZ
  Basis Set:
  @DF-RHF Final Energy:  -266.94878028884540
    Total Energy =                       -266.9487802888455690
  Basis Set: CC-PVTZ
  Basis Set:
  Basis Set: CC-PVTZ
  Basis Set:
  @DF-RHF Final Energy:  -266.94878008555452
    Total Energy =                       -266.9487800855547448
  Basis Set: CC-PVTZ
  Basis Set:
  Charge       = 0
  Multiplicity = 1
  Basis Set: CC-PVTZ
  Basis Set:

    Orbital Energies (a.u.)
    -----------------------

    Doubly Occupied:

       1A    -20.601236     2A    -20.543721     3A    -11.374541
       4A    -11.242601     5A    -11.218615     6A     -1.474814
       7A     -1.371034     8A     -1.065906     9A     -0.917561
      10A     -0.804306    11A     -0.707336    12A     -0.691041
      13A     -0.663461    14A     -0.606935    15A     -0.584775
      16A     -0.531667    17A     -0.527142    18A     -0.505798
      19A     -0.486796    20A     -0.448793

  @DF-RHF Final Energy:  -266.94878028023811

   => Energetics <=

    Nuclear Repulsion Energy =            179.9938803356948256
    One-Electron Energy =                -721.1491611105109314
    Two-Electron Energy =                 274.2065004945781652
    DFT Exchange-Correlation Energy =       0.0000000000000000
    Empirical Dispersion Energy =           0.0000000000000000
    PCM Polarization Energy =               0.0000000000000000
    EFP Energy =                            0.0000000000000000
    Total Energy =                       -266.9487802802379406
    Molecular point group: c1
  Basis Set: CC-PVTZ
  Basis Set:

  -Total Gradient:
     Atom            X                  Y                   Z
    ------   -----------------  -----------------  -----------------
       1       -0.002049444645    -0.004234897125    -0.008145415431
       2        0.002114550807     0.005437688511     0.013961433026
       3        0.000606621252    -0.001584121795    -0.014246265595
       4        0.000049039059     0.000007674880    -0.000236654774
       5       -0.000691210790     0.000378208641     0.008454365483
       6       -0.000006957171     0.000003002545     0.000060414099
       7        0.000004382704    -0.000019623820     0.000095660331
       8       -0.000023588511     0.000021037324     0.000110136336
       9       -0.000009330836     0.000008072519    -0.000011146315
      10       -0.000008358427    -0.000002444240    -0.000014337360
      11        0.000014296560    -0.000014597437    -0.000028189801

  **** Optimization is complete! (in 6 steps) ****
    Final optimized geometry and variables:
    Molecular point group: c1

    Geometry (in Angstrom), charge = 0, multiplicity = 1:

    H            2.315890288173    -0.246951966314    -0.314248198969
    O            1.584082487959    -0.681737927431     0.095120472780
    C            0.491147281141     0.078087114292    -0.025995244737
    C           -0.766681350686    -0.747001353809     0.003379790881
    O            0.542767319080     1.256301887042    -0.075893940366
    C           -2.038553306669     0.085027502358     0.016842469398
    H           -0.733553805725    -1.407544556761    -0.856518801722
    H           -0.703119644841    -1.392256274927     0.872803118478
    H           -2.101056041615     0.714878627458    -0.860295821526
    H           -2.906207706335    -0.562792697564     0.035859117510
    H           -2.073160996555     0.728159228328     0.885999501410

  Mulliken Charges: (a.u.)
   Center  Symbol    Alpha    Beta     Spin     Total
       1     H     0.38073  0.38073  0.00000  0.23853
       2     O     4.16592  4.16592  0.00000 -0.33184
       3     C     2.80374  2.80374  0.00000  0.39253
       4     C     3.10030  3.10030  0.00000 -0.20061
       5     O     4.18382  4.18382  0.00000 -0.36764
       6     C     3.13911  3.13911  0.00000 -0.27823
       7     H     0.44202  0.44202  0.00000  0.11597
       8     H     0.43891  0.43891  0.00000  0.12218
       9     H     0.44795  0.44795  0.00000  0.10410
      10     H     0.44975  0.44975  0.00000  0.10050
      11     H     0.44775  0.44775  0.00000  0.10450

   Total alpha = 20.00000, Total beta = 20.00000, Total charge = -0.00000

*** Psi4 exiting successfully. Buy a developer a beer!
