  ==> Input File <==

--------------------------------------------------------------------------
set {
	reference rhf
	basis cc-pvtz
}

set_num_threads( 4 )
memory 2 gb

molecule MOL {
0 1

H	 2.342730	 0.877684	 -1.045694
C	 2.360424	 0.000000	 -0.411793
C	 1.173749	 0.000000	 0.526870
H	 3.286567	 0.000000	 0.151574
H	 2.342730	 -0.877684	 -1.045694
O	 -0.000000	 0.000000	 -0.223739
H	 1.203779	 0.876757	 1.172538
H	 1.203779	 -0.876757	 1.172538
C	 -1.173749	 0.000000	 0.526870
C	 -0.819596	 0.026114	 1.997645
H	 -1.763785	 -0.886248	 0.296840
H	 -1.781036	 0.866974	 0.269865
H	 -0.228156	 -0.841846	 2.260926
H	 -1.719508	 0.026559	 2.602030
H	 -0.245425	 0.913229	 2.233923

	symmetry c1
}
set optking {
	frozen_dihedral = ("
		11 9 6 3
	")
}

ee = optimize('scf')
oeprop('DIPOLE', 'QUADRUPOLE', 'MULLIKEN_CHARGES')
f=open( 'psi4out.xyz', 'w' )
f.write( "15  " )
f.write( str(ee) + "\n" )
f.write( MOL.save_string_xyz() )
f.close()
--------------------------------------------------------------------------

    Molecular point group: c1
  Charge       = 0
  Multiplicity = 1
  Basis Set: CC-PVTZ
  Basis Set:
  @DF-RHF Final Energy:  -232.20565510363690
    Total Energy =                       -232.2056551036369001
    Molecular point group: c1
  Basis Set: CC-PVTZ
  Basis Set:
  Basis Set: CC-PVTZ
  Basis Set:
  @DF-RHF Final Energy:  -232.21010639397392
    Total Energy =                       -232.2101063939736605
  Basis Set: CC-PVTZ
  Basis Set:
  Basis Set: CC-PVTZ
  Basis Set:
  @DF-RHF Final Energy:  -232.21784306778156
    Total Energy =                       -232.2178430677817005
  Basis Set: CC-PVTZ
  Basis Set:
  Basis Set: CC-PVTZ
  Basis Set:
  @DF-RHF Final Energy:  -232.22112804532043
    Total Energy =                       -232.2211280453205404
  Basis Set: CC-PVTZ
  Basis Set:
  @DF-RHF Final Energy:  -232.22169394842805
    Total Energy =                       -232.2216939484279692
  Basis Set: CC-PVTZ
  Basis Set:
  @DF-RHF Final Energy:  -232.22251019338631
    Total Energy =                       -232.2225101933861424
  Basis Set: CC-PVTZ
  Basis Set:
  Basis Set: CC-PVTZ
  Basis Set:
  @DF-RHF Final Energy:  -232.22266873550487
    Total Energy =                       -232.2226687355049535
  Basis Set: CC-PVTZ
  Basis Set:
  Basis Set: CC-PVTZ
  Basis Set:
  @DF-RHF Final Energy:  -232.22268279749346
    Total Energy =                       -232.2226827974934622
  Basis Set: CC-PVTZ
  Basis Set:
  Charge       = 0
  Multiplicity = 1
  Basis Set: CC-PVTZ
  Basis Set:

    Orbital Energies (a.u.)
    -----------------------

    Doubly Occupied:

       1A    -20.538208     2A    -11.266558     3A    -11.264789
       4A    -11.215377     5A    -11.204753     6A     -1.369379
       7A     -1.040884     8A     -0.991589     9A     -0.872603
      10A     -0.795172    11A     -0.674447    12A     -0.664357
      13A     -0.611184    14A     -0.605606    15A     -0.548011
      16A     -0.534424    17A     -0.522755    18A     -0.502252
      19A     -0.501403    20A     -0.451073    21A     -0.400590

  @DF-RHF Final Energy:  -232.22268354170797

   => Energetics <=

    Nuclear Repulsion Energy =            193.1470039317657097
    One-Electron Energy =                -697.5885444573606264
    Two-Electron Energy =                 272.2188569838868943
    DFT Exchange-Correlation Energy =       0.0000000000000000
    Empirical Dispersion Energy =           0.0000000000000000
    PCM Polarization Energy =               0.0000000000000000
    EFP Energy =                            0.0000000000000000
    Total Energy =                       -232.2226835417080224
    Molecular point group: c1
  Basis Set: CC-PVTZ
  Basis Set:

  -Total Gradient:
     Atom            X                  Y                   Z
    ------   -----------------  -----------------  -----------------
       1        0.000007052562     0.000005073038    -0.000010237270
       2       -0.000033524190     0.000012764407    -0.000005849029
       3        0.000020357031     0.000676637193     0.000053476662
       4       -0.000015501854     0.000002347837     0.000007197149
       5       -0.000000731746    -0.000002163236     0.000000501640
       6       -0.000100674809    -0.000998725313    -0.000208604913
       7       -0.000005950437     0.000005157084    -0.000012234499
       8        0.000016003843     0.000010764886    -0.000000041387
       9        0.000462404757    -0.000143884341     0.000794262912
      10       -0.000018031149    -0.000004840318     0.000030650492
      11       -0.000345858058     0.000425875238    -0.000637294692
      12        0.000018672388     0.000006625622    -0.000016449452
      13       -0.000008932261     0.000010018708    -0.000003018924
      14        0.000002556171     0.000000935142     0.000011468824
      15        0.000002157755    -0.000006585946    -0.000003827512

  **** Optimization is complete! (in 9 steps) ****
    Final optimized geometry and variables:
    Molecular point group: c1

    Geometry (in Angstrom), charge = 0, multiplicity = 1:

    H            1.981715913291     0.893149121323    -1.666401397137
    C            2.067169284755     0.000669514292    -1.059141486378
    C            0.989136172691    -0.022717180449     0.003741530219
    H            3.049195524494    -0.012302502155    -0.599332433700
    H            1.978349818114    -0.861220626247    -1.708575378048
    O           -0.247330633552    -0.005090205799    -0.642082074861
    H            1.101755637993     0.837520798293     0.657447757905
    H            1.098290937251    -0.914718628229     0.615181033864
    C           -1.452944394777    -0.011931699066     0.080063481822
    C           -1.364397359820     0.037935692051     1.597924311470
    H           -2.001710707043    -0.901238010866    -0.213499469217
    H           -2.030684295939     0.840191443073    -0.262242252993
    H           -0.840882732145    -0.815453205595     2.009308669377
    H           -2.373292487010     0.027016480004     1.994232155847
    H           -0.882720842555     0.940733084556     1.951143072335

  Mulliken Charges: (a.u.)
   Center  Symbol    Alpha    Beta     Spin     Total
       1     H     0.45194  0.45194  0.00000  0.09612
       2     C     3.13540  3.13540  0.00000 -0.27079
       3     C     2.96627  2.96627  0.00000  0.06747
       4     H     0.45955  0.45955  0.00000  0.08090
       5     H     0.45181  0.45181  0.00000  0.09637
       6     O     4.18609  4.18609  0.00000 -0.37218
       7     H     0.47152  0.47152  0.00000  0.05696
       8     H     0.47190  0.47190  0.00000  0.05620
       9     C     2.96763  2.96763  0.00000  0.06474
      10     C     3.16673  3.16673  0.00000 -0.33346
      11     H     0.46361  0.46361  0.00000  0.07277
      12     H     0.46272  0.46272  0.00000  0.07455
      13     H     0.45030  0.45030  0.00000  0.09940
      14     H     0.44420  0.44420  0.00000  0.11160
      15     H     0.45033  0.45033  0.00000  0.09934

   Total alpha = 21.00000, Total beta = 21.00000, Total charge = -0.00000
