  ==> Input File <==

--------------------------------------------------------------------------
set {
	reference rhf
	basis cc-pvtz
}

set_num_threads( 4 )
memory 2 gb

molecule MOL {
0 1

H	 -2.084003	 -0.274204	 -2.041576
C	 -2.730455	 0.558988	 -1.733717
C	 -2.653809	 0.914422	 -0.273689
O	 -3.423020	 1.094846	 -2.527768
C	 -1.216901	 1.136108	 0.207794
H	 -3.272283	 1.785074	 -0.098222
H	 -3.088740	 0.079934	 0.271993
C	 -0.247837	 0.040196	 -0.230469
H	 -0.872882	 2.093195	 -0.169002
H	 -1.209325	 1.218376	 1.291938
C	 1.181757	 0.280428	 0.247371
H	 -0.259600	 -0.030819	 -1.314870
H	 -0.591284	 -0.923375	 0.136958
C	 2.151032	 -0.811012	 -0.202643
H	 1.515939	 1.247397	 -0.115449
H	 1.191514	 0.341223	 1.333422
C	 3.580021	 -0.656538	 0.320835
H	 2.170545	 -0.847575	 -1.289412
H	 1.766632	 -1.772905	 0.124928
C	 4.327657	 0.562694	 -0.213579
H	 4.138806	 -1.549270	 0.057813
H	 3.561991	 -0.620783	 1.406976
H	 4.355973	 0.557257	 -1.298551
H	 3.867136	 1.491650	 0.100501
H	 5.351524	 0.571613	 0.142204

	symmetry c1
}
set optking {
	frozen_dihedral = ("
		6 3 5 8
	")
}

ee = optimize('scf')
oeprop('DIPOLE', 'QUADRUPOLE', 'MULLIKEN_CHARGES')
f=open( 'psi4out.xyz', 'w' )
f.write( "25  " )
f.write( str(ee) + "\n" )
f.write( MOL.save_string_xyz() )
f.close()
--------------------------------------------------------------------------

    Molecular point group: c1
  Charge       = 0
  Multiplicity = 1
  Basis Set: CC-PVTZ
  Basis Set:
  @DF-RHF Final Energy:  -387.25521541267409
    Total Energy =                       -387.2552154126741470
    Molecular point group: c1
  Basis Set: CC-PVTZ
  Basis Set:
  Basis Set: CC-PVTZ
  Basis Set:
  @DF-RHF Final Energy:  -387.25583379962262
    Total Energy =                       -387.2558337996225646
  Basis Set: CC-PVTZ
  Basis Set:
  Basis Set: CC-PVTZ
  Basis Set:
  @DF-RHF Final Energy:  -387.25352780415699
    Total Energy =                       -387.2535278041568745
  Basis Set: CC-PVTZ
  Basis Set:
  Basis Set: CC-PVTZ
  Basis Set:
  @DF-RHF Final Energy:  -387.25742237372481
    Total Energy =                       -387.2574223737246939
  Basis Set: CC-PVTZ
  Basis Set:
  @DF-RHF Final Energy:  -387.25770702409812
    Total Energy =                       -387.2577070240981811
  @DF-RHF Final Energy:  -387.25778642236668
    Total Energy =                       -387.2577864223666211
  Basis Set: CC-PVTZ
  Basis Set:
  @DF-RHF Final Energy:  -387.25785018761269
    Total Energy =                       -387.2578501876129167
  Basis Set: CC-PVTZ
  Basis Set:
  Basis Set: CC-PVTZ
  Basis Set:
  @DF-RHF Final Energy:  -387.25793633456158
    Total Energy =                       -387.2579363345619186
  Basis Set: CC-PVTZ
  Basis Set:
  Basis Set: CC-PVTZ
  Basis Set:
  @DF-RHF Final Energy:  -387.25794002864160
    Total Energy =                       -387.2579400286413147
  Basis Set: CC-PVTZ
  Basis Set:
  Charge       = 0
  Multiplicity = 1
  Basis Set: CC-PVTZ
  Basis Set:

    Orbital Energies (a.u.)
    -----------------------

    Doubly Occupied:

       1A    -20.550922     2A    -11.319538     3A    -11.233165
       4A    -11.232583     5A    -11.224885     6A    -11.219006
       7A    -11.217411     8A    -11.216683     9A    -11.209168
      10A     -1.405376    11A     -1.105353    12A     -1.070209
      13A     -1.014396    14A     -0.943683    15A     -0.877810
      16A     -0.830046    17A     -0.783855    18A     -0.773676
      19A     -0.684639    20A     -0.657370    21A     -0.633402
      22A     -0.619066    23A     -0.613860    24A     -0.584085
      25A     -0.574148    26A     -0.565084    27A     -0.534223
      28A     -0.522541    29A     -0.516124    30A     -0.500195
      31A     -0.488726    32A     -0.479470    33A     -0.466769
      34A     -0.460589    35A     -0.444211    36A     -0.409528

  @DF-RHF Final Energy:  -387.25794004231471

   => Energetics <=

    Nuclear Repulsion Energy =            440.2191440608375501
    One-Electron Energy =               -1396.9905835648125958
    Two-Electron Energy =                 569.5134994616602171
    DFT Exchange-Correlation Energy =       0.0000000000000000
    Empirical Dispersion Energy =           0.0000000000000000
    PCM Polarization Energy =               0.0000000000000000
    EFP Energy =                            0.0000000000000000
    Total Energy =                       -387.2579400423147717
    Molecular point group: c1
  Basis Set: CC-PVTZ
  Basis Set:

  -Total Gradient:
     Atom            X                  Y                   Z
    ------   -----------------  -----------------  -----------------
       1        0.000007923059    -0.000007865535     0.000002987112
       2       -0.000008744772     0.000010611272    -0.000007881819
       3       -0.000566408922    -0.000677934419     0.002430249397
       4        0.000010418918    -0.000010062229     0.000030500591
       5       -0.000271997754    -0.001162410698     0.001935589330
       6        0.000545167519     0.000875295125    -0.002594782616
       7       -0.000004473914     0.000008751596    -0.000005395977
       8        0.000291959999     0.000955470852    -0.001782735909
       9       -0.000004975938     0.000009098751     0.000000888022
      10       -0.000006715118    -0.000006515076    -0.000002995673
      11       -0.000009234906     0.000001565588     0.000004435285
      12        0.000007380977     0.000003846603     0.000008558114
      13       -0.000000003976    -0.000009029244    -0.000002978251
      14        0.000011034532     0.000015580095    -0.000027113682
      15       -0.000019308819    -0.000018658987    -0.000001938690
      16       -0.000002595377     0.000004177582     0.000003968621
      17       -0.000012516197     0.000018143563     0.000023242803
      18       -0.000000092345     0.000006537987    -0.000007763387
      19        0.000007588349    -0.000000533662    -0.000006219863
      20        0.000011709419    -0.000005752102    -0.000005382378
      21       -0.000004118820    -0.000003829660     0.000007486309
      22       -0.000002217745     0.000009944890     0.000003998309
      23       -0.000003832038     0.000005091292    -0.000005113148
      24        0.000022241176    -0.000014615557     0.000004392659
      25        0.000001812695    -0.000006908025    -0.000005995156

  **** Optimization is complete! (in 10 steps) ****
    Final optimized geometry and variables:
    Molecular point group: c1

    Geometry (in Angstrom), charge = 0, multiplicity = 1:

    H           -2.754028843406    -0.864185821445    -1.480870140483
    C           -2.987473481200     0.167067374808    -1.193950232708
    C           -2.806144939734     0.510200585390     0.262530100127
    O           -3.354809299099     0.937044099121    -2.013911759880
    C           -1.335424889872     0.752131578721     0.641865468070
    H           -3.380534287402     1.408720977193     0.444557850258
    H           -3.213700620565    -0.301295839850     0.858372953331
    C           -0.360654568062    -0.345796334471     0.217544654365
    H           -1.019976595627     1.692176298053     0.200670060362
    H           -1.285553649292     0.885221936974     1.717193692486
    C            1.057482841987    -0.100560155640     0.727118224710
    H           -0.335778844380    -0.419275361029    -0.865757033029
    H           -0.711206733123    -1.308763356548     0.582699344199
    C            2.044015052970    -1.180235735956     0.286511118993
    H            1.391063678164     0.872212190597     0.380343249722
    H            1.043197037549    -0.050393399924     1.813412339190
    C            3.459081465114    -1.023396991493     0.845919363926
    H            2.090078351789    -1.202815715385    -0.799867192835
    H            1.658505698157    -2.148833712181     0.593208937490
    C            4.211792247407     0.205851561467     0.342571591152
    H            4.029244743514    -1.910098335003     0.586828181828
    H            3.414564815850    -0.999544271036     1.931607071052
    H            4.264133339850     0.213507461207    -0.741438742274
    H            3.739612841605     1.128643955319     0.657247222062
    H            5.227403458145     0.215466063870     0.721175011527

  Mulliken Charges: (a.u.)
   Center  Symbol    Alpha    Beta     Spin     Total
       1     H     0.45995  0.45995  0.00000  0.08009
       2     C     2.90698  2.90698  0.00000  0.18605
       3     C     3.09070  3.09070  0.00000 -0.18140
       4     O     4.16718  4.16718  0.00000 -0.33436
       5     C     3.10110  3.10110  0.00000 -0.20220
       6     H     0.43842  0.43842  0.00000  0.12317
       7     H     0.44882  0.44882  0.00000  0.10235
       8     C     3.10060  3.10060  0.00000 -0.20120
       9     H     0.44503  0.44503  0.00000  0.10994
      10     H     0.44731  0.44731  0.00000  0.10537
      11     C     3.09241  3.09241  0.00000 -0.18482
      12     H     0.44849  0.44849  0.00000  0.10302
      13     H     0.45207  0.45207  0.00000  0.09586
      14     C     3.09537  3.09537  0.00000 -0.19075
      15     H     0.45019  0.45019  0.00000  0.09962
      16     H     0.45305  0.45305  0.00000  0.09389
      17     C     3.09088  3.09088  0.00000 -0.18177
      18     H     0.45277  0.45277  0.00000  0.09445
      19     H     0.44975  0.44975  0.00000  0.10051
      20     C     3.15247  3.15247  0.00000 -0.30493
      21     H     0.44787  0.44787  0.00000  0.10425
      22     H     0.45467  0.45467  0.00000  0.09066
      23     H     0.45418  0.45418  0.00000  0.09165
      24     H     0.45378  0.45378  0.00000  0.09245
      25     H     0.44595  0.44595  0.00000  0.10810

   Total alpha = 36.00000, Total beta = 36.00000, Total charge = -0.00000
