  ==> Input File <==

--------------------------------------------------------------------------
set {
	reference rhf
	basis 6-31G*
}

set_num_threads( 4 )
memory 2 gb

molecule MOL {
0 1

H	 -3.161837	 0.500524	 -0.000234
C	 -2.367097	 -0.232926	 -0.000000
O	 -1.158440	 0.455814	 -0.000122
H	 -2.468853	 -0.861886	 -0.882833
H	 -2.468942	 -0.861421	 0.883154
C	 -0.338256	 0.176384	 1.093995
C	 0.938784	 0.988995	 0.969522
H	 -0.107264	 -0.889175	 1.127552
H	 -0.854641	 0.422518	 2.022796
C	 1.902104	 0.745179	 2.130319
H	 1.416028	 0.738004	 0.027236
H	 0.673951	 2.040530	 0.916269
H	 2.199152	 -0.298389	 2.186469
H	 2.803763	 1.337483	 2.016158
H	 1.451522	 1.012752	 3.082046

	symmetry c1
}
set optking {
	frozen_dihedral = ("
		6 3 2 4
	")
}

ee = optimize('scf')
oeprop('DIPOLE', 'QUADRUPOLE', 'MULLIKEN_CHARGES')
f=open( 'psi4out.xyz', 'w' )
f.write( "15  " )
f.write( str(ee) + "\n" )
f.write( MOL.save_string_xyz() )
f.close()
--------------------------------------------------------------------------

    Molecular point group: c1
  Charge       = 0
  Multiplicity = 1
  Basis Set: 6-31G*
  Basis Set:
  @DF-RHF Final Energy:  -232.13497085470078
    Total Energy =                       -232.1349708547010664
    Molecular point group: c1
  Basis Set: 6-31G*
  Basis Set:
  Basis Set: 6-31G*
  Basis Set:
  @DF-RHF Final Energy:  -232.13539436858758
    Total Energy =                       -232.1353943685874697
  Basis Set: 6-31G*
  Basis Set:
  Basis Set: 6-31G*
  Basis Set:
  @DF-RHF Final Energy:  -232.13549899749981
    Total Energy =                       -232.1354989975000080
  Basis Set: 6-31G*
  Basis Set:
  Charge       = 0
  Multiplicity = 1
  Basis Set: 6-31G*
  Basis Set:

    Orbital Energies (a.u.)
    -----------------------

    Doubly Occupied:

       1A    -20.549279     2A    -11.266749     3A    -11.263425
       4A    -11.213661     5A    -11.212636     6A     -1.372753
       7A     -1.056795     8A     -0.955303     9A     -0.877336
      10A     -0.808677    11A     -0.670704    12A     -0.651555
      13A     -0.629470    14A     -0.607465    15A     -0.563840
      16A     -0.546102    17A     -0.501881    18A     -0.488284
      19A     -0.478874    20A     -0.460197    21A     -0.407715

  @DF-RHF Final Energy:  -232.13549959571057

   => Energetics <=

    Nuclear Repulsion Energy =            189.3754692855675046
    One-Electron Energy =                -689.8565362129314735
    Two-Electron Energy =                 268.3455673316533421
    DFT Exchange-Correlation Energy =       0.0000000000000000
    Empirical Dispersion Energy =           0.0000000000000000
    PCM Polarization Energy =               0.0000000000000000
    EFP Energy =                            0.0000000000000000
    Total Energy =                       -232.1354995957105984
    Molecular point group: c1
  Basis Set: 6-31G*
  Basis Set:

  -Total Gradient:
     Atom            X                  Y                   Z
    ------   -----------------  -----------------  -----------------
       1       -0.000005231597    -0.000002927344    -0.000000583261
       2        0.000052053671    -0.000004935517     0.000038651241
       3       -0.000109394360    -0.000055881025    -0.000036094356
       4       -0.000024829507     0.000044969450    -0.000029692424
       5       -0.000007195556    -0.000008644661     0.000003254648
       6        0.000066486219    -0.000005268453    -0.000041524956
       7       -0.000011699727    -0.000006217861     0.000027011020
       8       -0.000005808790     0.000004137390     0.000027197628
       9       -0.000006973363     0.000010206036    -0.000046660891
      10        0.000046511561     0.000036766117     0.000023399464
      11       -0.000031354056    -0.000013264317     0.000013889418
      12        0.000013587810     0.000000831441    -0.000000750877
      13       -0.000002951326     0.000006503661    -0.000007016791
      14        0.000021759585    -0.000000596012     0.000026703021
      15        0.000005039440    -0.000005678902     0.000002217118

  **** Optimization is complete! (in 4 steps) ****
    Final optimized geometry and variables:
    Molecular point group: c1

    Geometry (in Angstrom), charge = 0, multiplicity = 1:

    H           -2.960591231721     0.082392634255    -0.858018982418
    C           -2.149365010638    -0.637856932317    -0.848065333551
    O           -0.924460019572     0.033731459122    -0.819593399412
    H           -2.213261680727    -1.244861016227    -1.745025290261
    H           -2.278149697316    -1.285988084410     0.013609055672
    C           -0.097812444677    -0.241159860920     0.272751735113
    C            1.176048901684     0.573594659171     0.132732854321
    H            0.138225616719    -1.304775219412     0.311183728140
    H           -0.605165305329     0.011435639523     1.203970255935
    C            2.148987572620     0.340630183616     1.287979005416
    H            1.646258762800     0.317121795235    -0.811587104892
    H            0.907945884885     1.623981340139     0.073880238287
    H            2.449474280391    -0.701688691026     1.349055509470
    H            3.048247869521     0.934486950659     1.163090862074
    H            1.704984191218     0.613335702390     2.241371474163

  Mulliken Charges: (a.u.)
   Center  Symbol    Alpha    Beta     Spin     Total
       1     H     0.42073  0.42073  0.00000  0.15855
       2     C     3.07585  3.07585  0.00000 -0.15171
       3     O     4.31091  4.31091  0.00000 -0.62181
       4     H     0.42088  0.42088  0.00000  0.15824
       5     H     0.42984  0.42984  0.00000  0.14032
       6     C     2.98130  2.98130  0.00000  0.03741
       7     C     3.15995  3.15995  0.00000 -0.31990
       8     H     0.43322  0.43322  0.00000  0.13357
       9     H     0.43322  0.43322  0.00000  0.13356
      10     C     3.24794  3.24794  0.00000 -0.49587
      11     H     0.41439  0.41439  0.00000  0.17122
      12     H     0.41438  0.41438  0.00000  0.17125
      13     H     0.42098  0.42098  0.00000  0.15804
      14     H     0.41544  0.41544  0.00000  0.16911
      15     H     0.42098  0.42098  0.00000  0.15803

   Total alpha = 21.00000, Total beta = 21.00000, Total charge =  0.00000
