  ==> Input File <==

--------------------------------------------------------------------------
set {
	reference rhf
	basis cc-pvtz
}

set_num_threads( 4 )
memory 2 gb

molecule MOL {
0 1

H	 -0.000000	 -1.861000	 0.320000
N	 -0.000000	 -1.022000	 -0.225000
C	 1.047000	 -0.043000	 0.086000
C	 -1.047000	 -0.043000	 0.086000
H	 1.887000	 -0.047000	 -0.599000
H	 1.428000	 -0.110000	 1.104000
C	 0.000000	 1.077000	 -0.068000
H	 -1.428000	 -0.110000	 1.104000
H	 -1.887000	 -0.047000	 -0.599000
H	 0.000000	 1.866000	 0.672000
H	 0.000000	 1.512000	 -1.059000

	symmetry c1
}
ee = optimize('scf')
oeprop('DIPOLE', 'QUADRUPOLE', 'MULLIKEN_CHARGES')
f=open( 'psi4out.xyz', 'w' )
f.write( "11  " )
f.write( str(ee) + "\n" )
f.write( MOL.save_string_xyz() )
f.close()
--------------------------------------------------------------------------

    Molecular point group: c1
  Charge       = 0
  Multiplicity = 1
  Basis Set: CC-PVTZ
  Basis Set:
  @DF-RHF Final Energy:  -172.14224272120586
    Total Energy =                       -172.1422427212059176
    Molecular point group: c1
  Basis Set: CC-PVTZ
  Basis Set:
  Basis Set: CC-PVTZ
  Basis Set:
  @DF-RHF Final Energy:  -172.14227487846881
    Total Energy =                       -172.1422748784688110
  Basis Set: CC-PVTZ
  Basis Set:
  Charge       = 0
  Multiplicity = 1
  Basis Set: CC-PVTZ
  Basis Set:

    Orbital Energies (a.u.)
    -----------------------

    Doubly Occupied:

       1A    -15.528926     2A    -11.242077     3A    -11.242073
       4A    -11.216400     5A     -1.232557     6A     -0.971781
       7A     -0.912572     8A     -0.765823     9A     -0.693121
      10A     -0.655492    11A     -0.552996    12A     -0.532937
      13A     -0.518343    14A     -0.470623    15A     -0.452820
      16A     -0.366715

  @DF-RHF Final Energy:  -172.14227550920552

   => Energetics <=

    Nuclear Repulsion Energy =            129.7074580189090796
    One-Electron Energy =                -488.9889501485923802
    Two-Electron Energy =                 187.1392166204778960
    DFT Exchange-Correlation Energy =       0.0000000000000000
    Empirical Dispersion Energy =           0.0000000000000000
    PCM Polarization Energy =               0.0000000000000000
    EFP Energy =                            0.0000000000000000
    Total Energy =                       -172.1422755092054331
    Molecular point group: c1
  Basis Set: CC-PVTZ
  Basis Set:

  -Total Gradient:
     Atom            X                  Y                   Z
    ------   -----------------  -----------------  -----------------
       1       -0.000107166159     0.000088767907    -0.000000000037
       2        0.000104005041    -0.000018007074     0.000000000309
       3        0.000056198671    -0.000177287164    -0.000132676683
       4        0.000056199739    -0.000177286889     0.000132677924
       5       -0.000004876486    -0.000014912738    -0.000056352021
       6        0.000017717429     0.000035759404     0.000025298277
       7       -0.000135880837     0.000280783638     0.000000001964
       8        0.000017717480     0.000035757860    -0.000025299258
       9       -0.000004876584    -0.000014911261     0.000056349743
      10        0.000059238664     0.000005897776    -0.000000000142
      11       -0.000058276958    -0.000044561460    -0.000000000078

  **** Optimization is complete! (in 3 steps) ****
    Final optimized geometry and variables:
    Molecular point group: c1

    Geometry (in Angstrom), charge = 0, multiplicity = 1:

    H            1.836206193724    -0.334980979298     0.000000000159
    N            1.000723149934     0.207736104474    -0.000000000056
    C            0.021129936947    -0.102649190448     1.046695710607
    C            0.021129937279    -0.102649190340    -1.046695710912
    H            0.022991251030     0.582085593296     1.884836139502
    H            0.090237938625    -1.118918565836     1.426645174776
    C           -1.096439969398     0.051277704907     0.000000000388
    H            0.090237938510    -1.118918566049    -1.426645174904
    H            0.022991251357     0.582085593323    -1.884836140098
    H           -1.886241888437    -0.685436889140     0.000000000001
    H           -1.528878856650     1.041623416221     0.000000000362

  Mulliken Charges: (a.u.)
   Center  Symbol    Alpha    Beta     Spin     Total
       1     H     0.44532  0.44532  0.00000  0.10936
       2     N     3.63222  3.63222  0.00000 -0.26444
       3     C     3.04491  3.04491  0.00000 -0.08981
       4     C     3.04491  3.04491  0.00000 -0.08981
       5     H     0.45670  0.45670  0.00000  0.08661
       6     H     0.46070  0.46070  0.00000  0.07860
       7     C     3.10135  3.10135  0.00000 -0.20270
       8     H     0.46070  0.46070  0.00000  0.07860
       9     H     0.45670  0.45670  0.00000  0.08661
      10     H     0.44860  0.44860  0.00000  0.10279
      11     H     0.44790  0.44790  0.00000  0.10419

   Total alpha = 16.00000, Total beta = 16.00000, Total charge = -0.00000
