  ==> Input File <==

--------------------------------------------------------------------------
set {
	reference rhf
	basis cc-pvtz
}

set_num_threads( 4 )
memory 2 gb

molecule MOL {
0 1

H	 -0.291056	 0.125613	 -2.520954
O	 -0.742757	 0.935312	 -2.363458
C	 -0.379349	 1.442491	 -1.116730
C	 -0.793473	 0.591216	 0.050087
H	 -0.848940	 2.415491	 -1.032717
H	 0.694651	 1.611403	 -1.064839
C	 -1.534243	 -0.493009	 -0.013340
H	 -0.433041	 0.933875	 1.006080
H	 -1.101195	 -1.466332	 -0.144046
H	 -2.604242	 -0.437780	 0.050785

	symmetry c1
}
set optking {
	frozen_dihedral = ("
		3 4 7 9
	")
}

ee = optimize('scf')
oeprop('DIPOLE', 'QUADRUPOLE', 'MULLIKEN_CHARGES')
f=open( 'psi4out.xyz', 'w' )
f.write( "10  " )
f.write( str(ee) + "\n" )
f.write( MOL.save_string_xyz() )
f.close()
--------------------------------------------------------------------------

    Molecular point group: c1
  Charge       = 0
  Multiplicity = 1
  Basis Set: CC-PVTZ
  Basis Set:
  @DF-RHF Final Energy:  -191.80781015450464
    Total Energy =                       -191.8078101545046934
    Molecular point group: c1
  Basis Set: CC-PVTZ
  Basis Set:
  Basis Set: CC-PVTZ
  Basis Set:
  @DF-RHF Final Energy:  -191.81978923703457
    Total Energy =                       -191.8197892370344562
  Basis Set: CC-PVTZ
  Basis Set:
  Basis Set: CC-PVTZ
  Basis Set:
  @DF-RHF Final Energy:  -191.82482080235596
    Total Energy =                       -191.8248208023560437
  Basis Set: CC-PVTZ
  Basis Set:
  Basis Set: CC-PVTZ
  Basis Set:
  @DF-RHF Final Energy:  -191.83748119933432
    Total Energy =                       -191.8374811993344622
  Basis Set: CC-PVTZ
  Basis Set:
  @DF-RHF Final Energy:  -191.83995236879673
    Total Energy =                       -191.8399523687967019
  @DF-RHF Final Energy:  -191.85745229971548
    Total Energy =                       -191.8574522997155896
  @DF-RHF Final Energy:  -191.89806881584673
    Total Energy =                       -191.8980688158467274
  @DF-RHF Final Energy:  -191.78268730262124
    Total Energy =                       -191.7826873026212979
  @DF-RHF Final Energy:  -191.86522812999243
    Total Energy =                       -191.8652281299924311
  @DF-RHF Final Energy:  -191.83108581279043
    Total Energy =                       -191.8310858127904623
  @DF-RHF Final Energy:  -191.88756388191322
    Total Energy =                       -191.8875638819131950
  @DF-RHF Final Energy:  -191.78469208432844
    Total Energy =                       -191.7846920843286398
  @DF-RHF Final Energy:  -191.86189209342132
    Total Energy =                       -191.8618920934213179
  @DF-RHF Final Energy:  -191.76315957811974
    Total Energy =                       -191.7631595781199394
  @DF-RHF Final Energy:  -191.83954460135575
    Total Energy =                       -191.8395446013558399
  @DF-RHF Final Energy:  -191.81059907511008
    Total Energy =                       -191.8105990751099625
  @DF-RHF Final Energy:  -191.87479155516493
    Total Energy =                       -191.8747915551650181
  @DF-RHF Final Energy:  -191.78875200269005
    Total Energy =                       -191.7887520026899892
  @DF-RHF Final Energy:  -191.90167568074415
    Total Energy =                       -191.9016756807441766
  @DF-RHF Final Energy:  -191.82978630228661
    Total Energy =                       -191.8297863022866920
  @DF-RHF Final Energy:  -191.76798119860342
    Total Energy =                       -191.7679811986035077
  @DF-RHF Final Energy:  -191.86907111686514
    Total Energy =                       -191.8690711168651717
  @DF-RHF Final Energy:  -191.91607975979673
    Total Energy =                       -191.9160797597967019
  @DF-RHF Final Energy:  -191.90618070765629
    Total Energy =                       -191.9061807076562047
  @DF-RHF Final Energy:  -191.90429054982837
    Total Energy =                       -191.9042905498283744
  @DF-RHF Final Energy:  -191.90339137191964
    Total Energy =                       -191.9033913719195255
  @DF-RHF Final Energy:  -191.86841045350005
    Total Energy =                       -191.8684104535000756
  @DF-RHF Final Energy:  -191.70082556127369
    Total Energy =                       -191.7008255612738026
  @DF-RHF Final Energy:  -191.83969964330578
    Total Energy =                       -191.8396996433057780
  @DF-RHF Final Energy:  -191.66919011172257
    Total Energy =                       -191.6691901117226280
  @DF-RHF Final Energy:  -191.82466425812680
    Total Energy =                       -191.8246642581268588
  @DF-RHF Final Energy:  -191.69173401813077
    Total Energy =                       -191.6917340181307168
  @DF-RHF Final Energy:  -191.86986252293900
    Total Energy =                       -191.8698625229388881
  @DF-RHF Final Energy:  -191.73459660979563
    Total Energy =                       -191.7345966097957444
  @DF-RHF Final Energy:  -191.88253622635636
    Total Energy =                       -191.8825362263563079
  @DF-RHF Final Energy:  -191.75640585875172
    Total Energy =                       -191.7564058587519753
  Basis Set: CC-PVTZ
  Basis Set:
  @DF-RHF Final Energy:  -191.88673536744352
    Total Energy =                       -191.8867353674434924
  Basis Set: CC-PVTZ
  Basis Set:
  Basis Set: CC-PVTZ
  Basis Set:
  @DF-RHF Final Energy:  -191.76265602158162
    Total Energy =                       -191.7626560215815630
  Basis Set: CC-PVTZ
  Basis Set:
  Basis Set: CC-PVTZ
  Basis Set:
  @DF-RHF Final Energy:  -191.88859334613284
    Total Energy =                       -191.8885933461327227
  Basis Set: CC-PVTZ
  Basis Set:
  Charge       = 0
  Multiplicity = 1
  Basis Set: CC-PVTZ
  Basis Set:

    Orbital Energies (a.u.)
    -----------------------

    Doubly Occupied:

       1A    -20.556891     2A    -11.313844     3A    -11.266530
       4A    -11.255858     5A     -1.309968     6A     -1.085948
       7A     -0.923761     8A     -0.828851     9A     -0.667011
      10A     -0.645995    11A     -0.613585    12A     -0.546191
      13A     -0.514153    14A     -0.504826    15A     -0.467566
      16A     -0.326808

  @DF-RHF Final Energy:  -191.76953599275686

   => Energetics <=

    Nuclear Repulsion Energy =            114.0020754837908186
    One-Electron Energy =                -485.8876512000692856
    Two-Electron Energy =                 180.1160397235214532
    DFT Exchange-Correlation Energy =       0.0000000000000000
    Empirical Dispersion Energy =           0.0000000000000000
    PCM Polarization Energy =               0.0000000000000000
    EFP Energy =                            0.0000000000000000
    Total Energy =                       -191.7695359927570280
    Molecular point group: c1
  Basis Set: CC-PVTZ
  Basis Set:

  -Total Gradient:
     Atom            X                  Y                   Z
    ------   -----------------  -----------------  -----------------
       1       -0.008350961296     0.006801117788    -0.012514729459
       2       -0.029119587968    -0.039996859080    -0.082070408722
       3        0.012472353640     0.086249284203     0.058080956993
       4        0.203481265595     0.262162426773     0.234857886676
       5        0.002856025545    -0.086551479740     0.018067535259
       6        0.033180577319    -0.011309312328     0.020950121899
       7       -0.078948492587    -0.128615861422     0.036320843283
       8       -0.182907017801    -0.097650818826    -0.227607032409
       9        0.032630256728    -0.020072865661    -0.032978713760
      10        0.014705580826     0.028984368293    -0.013106459761

    Molecular point group: c1

    Geometry (in Angstrom), charge = 0, multiplicity = 1:

    H            0.064057010158    -0.438998640737    -1.755785586137
    O            0.011452504269     0.418530362507    -1.475115000306
    C            0.493723732175     0.699972341666    -0.239287583975
    C           -0.073420007972     0.000236342220     0.994763622074
    H            0.355137927656     1.821506798955    -0.098052411071
    H            1.595343986299     0.416008954789    -0.075763226872
    C           -0.582384924752    -1.165533717344     1.110406990684
    H            0.697009710041     0.422530845657     1.700886201038
    H           -0.030788304321    -2.090613533378     1.350696330304
    H           -0.932646795661    -1.232269542649     0.072414644638

  Mulliken Charges: (a.u.)
   Center  Symbol    Alpha    Beta     Spin     Total
       1     H     0.38736  0.38736  0.00000  0.22529
       2     O     4.24196  4.24196  0.00000 -0.48391
       3     C     2.97720  2.97720  0.00000  0.04561
       4     C     3.13623  3.13623  0.00000 -0.27246
       5     H     0.41337  0.41337  0.00000  0.17326
       6     H     0.45568  0.45568  0.00000  0.08865
       7     C     3.16548  3.16548  0.00000 -0.33097
       8     H     0.36031  0.36031  0.00000  0.27939
       9     H     0.42232  0.42232  0.00000  0.15536
      10     H     0.44010  0.44010  0.00000  0.11981

   Total alpha = 16.00000, Total beta = 16.00000, Total charge = -0.00000
