                              Psi4 1.0.54 Driver

  ==> Input File <==

--------------------------------------------------------------------------
set {
	reference rhf
	basis cc-pvtz
}

set_num_threads( 4 )
memory 2 gb

molecule MOL {
0 1

H	 -2.644180	 -0.653737	 1.272255
C	 -2.092774	 -0.380414	 0.391915
O	 -0.808934	 -0.154049	 0.752536
F	 -2.163230	 -1.351640	 -0.507133
F	 -2.627232	 0.691260	 -0.169301
C	 0.085006	 0.250800	 -0.215074
C	 1.370439	 -0.548013	 -0.012993
Cl	 0.421658	 1.987697	 -0.091007
H	 -0.272219	 0.063284	 -1.212508
F	 1.312260	 -1.236089	 1.098848
F	 2.380405	 0.284324	 0.079191
F	 1.604346	 -1.367487	 -1.000920

	symmetry c1
}
set optking {
	frozen_dihedral = ("
		10 7 6 9
	")
}

ee,wfn = optimize('scf', return_wfn=True)
oeprop( wfn, 'DIPOLE', 'QUADRUPOLE', 'MULLIKEN_CHARGES')
f=open( 'psi4out.xyz', 'w' )
f.write( "12  " )
f.write( str(ee) + "\n" )
f.write( MOL.save_string_xyz() )
f.close()
--------------------------------------------------------------------------

    Molecular point group: c1
  Charge       = 0
  Multiplicity = 1
  Basis Set: CC-PVTZ
  Basis Set:
  @DF-RHF Final Energy: -1146.60709819129534
    Total Energy =                      -1146.6070981912946536
    Molecular point group: c1
  Basis Set: CC-PVTZ
  Basis Set:
  Basis Set: CC-PVTZ
  Basis Set:
  @DF-RHF Final Energy: -1146.60590712817270
    Total Energy =                      -1146.6059071281727029
  Basis Set: CC-PVTZ
  Basis Set:
  Basis Set: CC-PVTZ
  Basis Set:
  @DF-RHF Final Energy: -1146.61115929357084
    Total Energy =                      -1146.6111592935694716
  Basis Set: CC-PVTZ
  Basis Set:
  Basis Set: CC-PVTZ
  Basis Set:
  @DF-RHF Final Energy: -1146.61154051003723
    Total Energy =                      -1146.6115405100374574
  Basis Set: CC-PVTZ
  Basis Set:
  Basis Set: CC-PVTZ
  Basis Set:
  @DF-RHF Final Energy: -1146.61158381395126
    Total Energy =                      -1146.6115838139517109
  Basis Set: CC-PVTZ
  Basis Set:
  Basis Set: CC-PVTZ
  Basis Set:
  @DF-RHF Final Energy: -1146.61158996202857
    Total Energy =                      -1146.6115899620285745
  Basis Set: CC-PVTZ
  Basis Set:
  Charge       = 0
  Multiplicity = 1
  Basis Set: CC-PVTZ
  Basis Set:

    Orbital Energies (a.u.)
    -----------------------

    Doubly Occupied:

       1A   -104.855993     2A    -26.354833     3A    -26.352832
       4A    -26.351998     5A    -26.342913     6A    -26.342671
       7A    -20.638964     8A    -11.522637     9A    -11.483167
      10A    -11.402242    11A    -10.581606    12A     -8.048391
      13A     -8.046408    14A     -8.046334    15A     -1.768549
      16A     -1.724165    17A     -1.663543    18A     -1.659253
      19A     -1.644286    20A     -1.485697    21A     -1.175402
      22A     -1.049665    23A     -0.990361    24A     -0.923931
      25A     -0.861982    26A     -0.857737    27A     -0.852629
      28A     -0.830530    29A     -0.818599    30A     -0.795780
      31A     -0.732778    32A     -0.730332    33A     -0.710936
      34A     -0.708192    35A     -0.685070    36A     -0.679562
      37A     -0.665255    38A     -0.662666    39A     -0.650590
      40A     -0.634674    41A     -0.598029    42A     -0.579988
      43A     -0.523754    44A     -0.476801    45A     -0.469388

  @DF-RHF Final Energy: -1146.61159083515531

   => Energetics <=

    Nuclear Repulsion Energy =            735.6358090614484126
    One-Electron Energy =               -3054.5325775080746098
    Two-Electron Energy =                1172.2851776114707718
    DFT Exchange-Correlation Energy =       0.0000000000000000
    Empirical Dispersion Energy =           0.0000000000000000
    PCM Polarization Energy =               0.0000000000000000
    EFP Energy =                            0.0000000000000000
    Total Energy =                      -1146.6115908351553117
    Molecular point group: c1
  Basis Set: CC-PVTZ
  Basis Set:

  -Total Gradient:
     Atom            X                  Y                   Z
    ------   -----------------  -----------------  -----------------
       1        0.000006614935     0.000005396332    -0.000002256315
       2       -0.000090790504     0.000023218499     0.000066792302
       3        0.000062477509    -0.000027068981    -0.000072458506
       4        0.000042701535     0.000051440321    -0.000022772198
       5        0.000054999568    -0.000060702675    -0.000006429195
       6        0.002501478841     0.002210103012    -0.002304619383
       7        0.001698756455     0.002811189873     0.002067547841
       8        0.000006003606     0.000006176389    -0.000005984475
       9       -0.002600628311    -0.002507107881     0.001575901655
      10       -0.001672774335    -0.002562628317    -0.001376232042
      11        0.000017777155     0.000007562428     0.000013536605
      12       -0.000026616419     0.000042421104     0.000066973704

  **** Optimization is complete! (in 7 steps) ****
    Final optimized geometry and variables:
    Molecular point group: c1

    Geometry (in Angstrom), charge = 0, multiplicity = 1:

    H           -2.791270407059    -0.129216645429     1.126196820820
    C           -2.142996601544    -0.057432823957     0.272720872533
    O           -0.874696548082     0.083458953911     0.717444633799
    F           -2.257571707926    -1.146467136837    -0.476020371590
    F           -2.502049242107     0.961692678992    -0.490309650788
    C            0.132646626157     0.243629721018    -0.213114526532
    C            1.297487290240    -0.718230382085     0.156643879925
    CL           0.651848487592     1.935269333514    -0.274926545011
    H           -0.207593967610    -0.032593285345    -1.193970780628
    F            1.131400680368    -1.251027834614     1.335720422252
    F            2.469848448630    -0.151078826616     0.121341409295
    F            1.304330702140    -1.700847244739    -0.721714285811

  Mulliken Charges: (a.u.)
   Center  Symbol    Alpha    Beta     Spin     Total
       1     H     0.45192  0.45192  0.00000  0.09616
       2     C     2.73914  2.73914  0.00000  0.52172
       3     O     4.15065  4.15065  0.00000 -0.30130
       4     F     4.61884  4.61884  0.00000 -0.23769
       5     F     4.61536  4.61536  0.00000 -0.23073
       6     C     2.96159  2.96159  0.00000  0.07683
       7     C     2.66255  2.66255  0.00000  0.67489
       8    CL     8.56816  8.56816  0.00000 -0.13631
       9     H     0.43148  0.43148  0.00000  0.13703
      10     F     4.59715  4.59715  0.00000 -0.19430
      11     F     4.59517  4.59517  0.00000 -0.19035
      12     F     4.60798  4.60798  0.00000 -0.21596

   Total alpha = 45.00000, Total beta = 45.00000, Total charge = -0.00000

*** Psi4 exiting successfully. Buy a developer a beer!
