                              Psi4 1.0.54 Driver

  ==> Input File <==

--------------------------------------------------------------------------
set {
	reference rhf
	basis cc-pvtz
}

set_num_threads( 4 )
memory 2 gb

molecule MOL {
0 1

O	 1.847685	 1.294399	 -0.000190
C	 1.704209	 0.119472	 -0.000093
C	 0.380337	 -0.600947	 -0.000234
O	 2.715427	 -0.733672	 0.000025
C	 -0.824290	 0.329213	 -0.000115
H	 0.371455	 -1.255476	 -0.865660
H	 0.371410	 -1.255787	 0.864952
C	 -2.146151	 -0.432825	 -0.000068
H	 -0.773936	 0.979158	 -0.866319
H	 -0.773838	 0.979034	 0.866186
C	 -3.366283	 0.483552	 0.000557
H	 -2.189286	 -1.084450	 -0.869996
H	 -2.188867	 -1.085083	 0.869399
C	 -4.336816	 0.188061	 1.139048
H	 -3.885112	 0.389299	 -0.949227
H	 -3.037680	 1.516954	 0.065835
H	 -4.710355	 -0.828980	 1.081349
H	 -5.190429	 0.855325	 1.110071
H	 -3.856340	 0.307973	 2.104448
C	 4.020999	 -0.192556	 0.000019
H	 4.182809	 0.412891	 -0.879449
H	 4.692590	 -1.035653	 0.000152
H	 4.182726	 0.413087	 0.879368

	symmetry c1
}
set optking {
	frozen_dihedral = ("
		15 11 8 12
	")
}

ee,wfn = optimize('scf', return_wfn=True)
oeprop( wfn, 'DIPOLE', 'QUADRUPOLE', 'MULLIKEN_CHARGES')
f=open( 'psi4out.xyz', 'w' )
f.write( "23  " )
f.write( str(ee) + "\n" )
f.write( MOL.save_string_xyz() )
f.close()
--------------------------------------------------------------------------

    Molecular point group: c1
  Charge       = 0
  Multiplicity = 1
  Basis Set: CC-PVTZ
  Basis Set:
  @DF-RHF Final Energy:  -423.12538013568116
    Total Energy =                       -423.1253801356808708
    Molecular point group: c1
  Basis Set: CC-PVTZ
  Basis Set:
  Basis Set: CC-PVTZ
  Basis Set:
  @DF-RHF Final Energy:  -423.12561967796074
    Total Energy =                       -423.1256196779607990
  Basis Set: CC-PVTZ
  Basis Set:
  Basis Set: CC-PVTZ
  Basis Set:
  @DF-RHF Final Energy:  -423.12568270969996
    Total Energy =                       -423.1256827096998450
  Basis Set: CC-PVTZ
  Basis Set:
  Basis Set: CC-PVTZ
  Basis Set:
  @DF-RHF Final Energy:  -423.12550749696084
    Total Energy =                       -423.1255074969612906
  Basis Set: CC-PVTZ
  Basis Set:
  Basis Set: CC-PVTZ
  Basis Set:
  @DF-RHF Final Energy:  -423.12568659207483
    Total Energy =                       -423.1256865920747714
  Basis Set: CC-PVTZ
  Basis Set:
  Charge       = 0
  Multiplicity = 1
  Basis Set: CC-PVTZ
  Basis Set:

    Orbital Energies (a.u.)
    -----------------------

    Doubly Occupied:

       1A    -20.596297     2A    -20.534107     3A    -11.364586
       4A    -11.278456     5A    -11.233553     6A    -11.217586
       7A    -11.215613     8A    -11.214278     9A    -11.207902
      10A     -1.472197    11A     -1.365767    12A     -1.093087
      13A     -1.043160    14A     -0.987849    15A     -0.932224
      16A     -0.845466    17A     -0.794949    18A     -0.769517
      19A     -0.699022    20A     -0.686618    21A     -0.675736
      22A     -0.646398    23A     -0.613232    24A     -0.599977
      25A     -0.578909    26A     -0.566600    27A     -0.545368
      28A     -0.527105    29A     -0.523283    30A     -0.503782
      31A     -0.493210    32A     -0.469317    33A     -0.462905
      34A     -0.461091    35A     -0.456551    36A     -0.438078

  @DF-RHF Final Energy:  -423.12568712151960

   => Energetics <=

    Nuclear Repulsion Energy =            453.6996571364143165
    One-Electron Energy =               -1475.4231439312293332
    Two-Electron Energy =                 598.5977996732954125
    DFT Exchange-Correlation Energy =       0.0000000000000000
    Empirical Dispersion Energy =           0.0000000000000000
    PCM Polarization Energy =               0.0000000000000000
    EFP Energy =                            0.0000000000000000
    Total Energy =                       -423.1256871215196043
    Molecular point group: c1
  Basis Set: CC-PVTZ
  Basis Set:

  -Total Gradient:
     Atom            X                  Y                   Z
    ------   -----------------  -----------------  -----------------
       1        0.000003126709     0.000006423608     0.000002386474
       2       -0.000005775624    -0.000000779922    -0.000010550998
       3        0.000025639227    -0.000015090846     0.000004719310
       4        0.000024419397    -0.000045285792     0.000002630321
       5       -0.000024333067    -0.000009090180     0.000008463796
       6        0.000008556078     0.000004357214     0.000001645384
       7        0.000008017302     0.000002682132    -0.000003432029
       8       -0.001154402322    -0.001526014533     0.001129288170
       9       -0.000007740955     0.000001300534     0.000004202821
      10       -0.000008386779     0.000003547585    -0.000003158063
      11        0.001236629417     0.001633038472    -0.000878649899
      12        0.000789400918     0.001044267864    -0.000818326674
      13       -0.000002072327     0.000001269713     0.000000623022
      14        0.000006365489     0.000016283281    -0.000017415109
      15       -0.000861594691    -0.001146956660     0.000578947370
      16        0.000000965373    -0.000000303990     0.000000719029
      17        0.000005708572     0.000003447607    -0.000000507523
      18       -0.000008732710     0.000003499392     0.000002262298
      19        0.000003420950    -0.000002519981    -0.000004787806
      20       -0.000007110394     0.000047341856     0.000001384541
      21       -0.000004088456    -0.000007897003     0.000003130048
      22       -0.000024567764    -0.000005652623    -0.000000013256
      23       -0.000003444341    -0.000007867727    -0.000003561229

  **** Optimization is complete! (in 6 steps) ****
    Final optimized geometry and variables:
    Molecular point group: c1

    Geometry (in Angstrom), charge = 0, multiplicity = 1:

    O            1.811645353090     1.240554758944    -0.134224930323
    C            1.669251647340     0.065473734823    -0.134975554775
    C            0.346085406007    -0.656096702183    -0.129521310827
    O            2.681366304302    -0.786667980098    -0.140726028694
    C           -0.859133497591     0.272757767264    -0.123331794359
    H            0.333859656260    -1.310226513407    -0.995244772457
    H            0.341670567053    -1.311531502120     0.735335387421
    C           -2.182314385191    -0.490100645074    -0.114413352542
    H           -0.815616658789     0.922053085185    -0.990525711323
    H           -0.805649125522     0.924056077372     0.741923074336
    C           -3.416343879874     0.434789465437    -0.120724575813
    H           -2.210349476804    -1.145320998496    -0.979791898959
    H           -2.212790824798    -1.136409351009     0.757929317397
    C           -4.405255392720     0.133256154472     1.002265555940
    H           -3.934930574368     0.346031223458    -1.069090333720
    H           -3.098650468895     1.468945209219    -0.042142260505
    H           -4.772949182146    -0.885454332068     0.936032969571
    H           -5.261152426805     0.797437318691     0.961541388878
    H           -3.939009325007     0.252035881221     1.974904716594
    C            3.986197589275    -0.244013502188    -0.146189900997
    H            4.143222390336     0.362759088416    -1.025610927586
    H            4.658698083170    -1.086381726735    -0.150376718698
    H            4.151488498288     0.360609969450     0.733197294679

  Mulliken Charges: (a.u.)
   Center  Symbol    Alpha    Beta     Spin     Total
       1     O     4.19696  4.19696  0.00000 -0.39392
       2     C     2.80616  2.80616  0.00000  0.38769
       3     C     3.10287  3.10287  0.00000 -0.20574
       4     O     4.14650  4.14650  0.00000 -0.29300
       5     C     3.08442  3.08442  0.00000 -0.16883
       6     H     0.44023  0.44023  0.00000  0.11954
       7     H     0.43984  0.43984  0.00000  0.12033
       8     C     3.09564  3.09564  0.00000 -0.19129
       9     H     0.44518  0.44518  0.00000  0.10964
      10     H     0.44616  0.44616  0.00000  0.10768
      11     C     3.08869  3.08869  0.00000 -0.17738
      12     H     0.45152  0.45152  0.00000  0.09695
      13     H     0.45504  0.45504  0.00000  0.08992
      14     C     3.14752  3.14752  0.00000 -0.29504
      15     H     0.45057  0.45057  0.00000  0.09886
      16     H     0.45140  0.45140  0.00000  0.09719
      17     H     0.45489  0.45489  0.00000  0.09022
      18     H     0.44917  0.44917  0.00000  0.10165
      19     H     0.45547  0.45547  0.00000  0.08906
      20     C     3.03770  3.03770  0.00000 -0.07540
      21     H     0.45435  0.45435  0.00000  0.09129
      22     H     0.44535  0.44535  0.00000  0.10930
      23     H     0.45436  0.45436  0.00000  0.09129

   Total alpha = 36.00000, Total beta = 36.00000, Total charge = -0.00000

*** Psi4 exiting successfully. Buy a developer a beer!
