                              Psi4 1.0.54 Driver

  ==> Input File <==

--------------------------------------------------------------------------
set {
	reference rhf
	basis cc-pvtz
}

set_num_threads( 4 )
memory 2 gb

molecule MOL {
0 1

O	 3.219313	 0.959291	 -0.614106
C	 2.698710	 0.058177	 -0.050237
C	 1.246364	 -0.005813	 0.348416
O	 3.344101	 -1.038700	 0.312317
C	 0.453207	 1.232821	 -0.049003
H	 0.839270	 -0.907818	 -0.092281
H	 1.216683	 -0.160521	 1.422434
C	 -0.998367	 1.217982	 0.432195
H	 0.481498	 1.345443	 -1.127236
H	 0.951413	 2.105557	 0.354893
C	 -1.882951	 0.151251	 -0.211235
H	 -1.429490	 2.193659	 0.228843
H	 -1.019755	 1.099323	 1.513279
C	 -3.342450	 0.243269	 0.226009
H	 -1.826223	 0.246578	 -1.293162
H	 -1.508033	 -0.839650	 0.027695
C	 -4.234517	 -0.821434	 -0.405970
H	 -3.730149	 1.228245	 -0.022691
H	 -3.398860	 0.159952	 1.308941
C	 -3.559679	 -1.565286	 -1.553600
H	 -4.537016	 -1.534358	 0.356233
H	 -5.148017	 -0.356476	 -0.766786
H	 -4.219254	 -2.312686	 -1.979439
H	 -2.660701	 -2.070998	 -1.217144
H	 -3.275659	 -0.883638	 -2.348520
C	 4.720529	 -1.114346	 0.001449
H	 4.874321	 -1.055557	 -1.065852
H	 5.057824	 -2.067950	 0.373977
H	 5.264321	 -0.313596	 0.480350

	symmetry c1
}
set optking {
	frozen_dihedral = ("
		21 17 14 11
	")
}

ee,wfn = optimize('scf', return_wfn=True)
oeprop( wfn, 'DIPOLE', 'QUADRUPOLE', 'MULLIKEN_CHARGES')
f=open( 'psi4out.xyz', 'w' )
f.write( "29  " )
f.write( str(ee) + "\n" )
f.write( MOL.save_string_xyz() )
f.close()
--------------------------------------------------------------------------

    Molecular point group: c1
  Charge       = 0
  Multiplicity = 1
  Basis Set: CC-PVTZ
  Basis Set:
  @DF-RHF Final Energy:  -501.21165608987599
    Total Energy =                       -501.2116560898757598
    Molecular point group: c1
  Basis Set: CC-PVTZ
  Basis Set:
  Basis Set: CC-PVTZ
  Basis Set:
  @DF-RHF Final Energy:  -500.57597200909925
    Total Energy =                       -500.5759720090992460
  Basis Set: CC-PVTZ
  Basis Set:
  Basis Set: CC-PVTZ
  Basis Set:
  @DF-RHF Final Energy:  -500.80743407157729
    Total Energy =                       -500.8074340715778590
  Basis Set: CC-PVTZ
  Basis Set:
  Basis Set: CC-PVTZ
  Basis Set:
  @DF-RHF Final Energy:  -501.09579558561131
    Total Energy =                       -501.0957955856110857
  Basis Set: CC-PVTZ
  Basis Set:
  @DF-RHF Final Energy:  -501.20069508635413
    Total Energy =                       -501.2006950863542443
  @DF-RHF Final Energy:  -501.21427743691845
    Total Energy =                       -501.2142774369190192
  @DF-RHF Final Energy:  -501.21557188821191
    Total Energy =                       -501.2155718882129349
  @DF-RHF Final Energy:  -501.21368342632024
    Total Energy =                       -501.2136834263199034
  Basis Set: CC-PVTZ
  Basis Set:
  @DF-RHF Final Energy:  -501.21575609600507
    Total Energy =                       -501.2157560960047249
  Basis Set: CC-PVTZ
  Basis Set:
  Basis Set: CC-PVTZ
  Basis Set:
  @DF-RHF Final Energy:  -501.21576836861311
    Total Energy =                       -501.2157683686128848
  Basis Set: CC-PVTZ
  Basis Set:
  Basis Set: CC-PVTZ
  Basis Set:
  @DF-RHF Final Energy:  -501.21576655131821
    Total Energy =                       -501.2157665513186657
  Basis Set: CC-PVTZ
  Basis Set:
  Charge       = 0
  Multiplicity = 1
  Basis Set: CC-PVTZ
  Basis Set:

    Orbital Energies (a.u.)
    -----------------------

    Doubly Occupied:

       1A    -20.595924     2A    -20.533800     3A    -11.364202
       4A    -11.278189     5A    -11.232858     6A    -11.216849
       7A    -11.215154     8A    -11.214399     9A    -11.213242
      10A    -11.212616    11A    -11.207435    12A     -1.471800
      13A     -1.365420    14A     -1.098227    15A     -1.064694
      16A     -1.018400    17A     -0.976568    18A     -0.928752
      19A     -0.874327    20A     -0.805201    21A     -0.774286
      22A     -0.764733    23A     -0.702643    24A     -0.685320
      25A     -0.675997    26A     -0.649086    27A     -0.628009
      28A     -0.603417    29A     -0.601434    30A     -0.588480
      31A     -0.558730    32A     -0.549497    33A     -0.543373
      34A     -0.526363    35A     -0.521650    36A     -0.505822
      37A     -0.504883    38A     -0.478214    39A     -0.473058
      40A     -0.460586    41A     -0.456127    42A     -0.445522
      43A     -0.444575    44A     -0.437908

  @DF-RHF Final Energy:  -501.21577079103372

   => Energetics <=

    Nuclear Repulsion Energy =            618.4830889130589640
    One-Electron Energy =               -1908.4621746172915664
    Two-Electron Energy =                 788.7633149131988830
    DFT Exchange-Correlation Energy =       0.0000000000000000
    Empirical Dispersion Energy =           0.0000000000000000
    PCM Polarization Energy =               0.0000000000000000
    EFP Energy =                            0.0000000000000000
    Total Energy =                       -501.2157707910337194
    Molecular point group: c1
  Basis Set: CC-PVTZ
  Basis Set:

  -Total Gradient:
     Atom            X                  Y                   Z
    ------   -----------------  -----------------  -----------------
       1        0.000009534562    -0.000005142750     0.000020068996
       2       -0.000019655359     0.000046929177    -0.000072551446
       3        0.000014942256    -0.000015735683    -0.000027790011
       4        0.000048089444    -0.000021076465     0.000030236000
       5       -0.000015530692     0.000001201408     0.000017609370
       6       -0.000016774002     0.000012501918     0.000013621105
       7       -0.000012926665     0.000001938808     0.000001062516
       8       -0.000007524753    -0.000006207577    -0.000007446100
       9        0.000003828101    -0.000003705598     0.000003920179
      10        0.000006123629    -0.000012012283     0.000007462585
      11       -0.001099881764     0.000134591767    -0.003171842419
      12       -0.000013600540    -0.000009672694    -0.000004702043
      13        0.000002983907    -0.000006030620     0.000007780962
      14        0.000662349086     0.000271021345     0.004568833933
      15        0.000000339803     0.000009558414    -0.000007105129
      16        0.000002933830     0.000010759514     0.000004970971
      17        0.004488555357    -0.002266443059    -0.001226440226
      18       -0.000002280586    -0.000003162469     0.000000572526
      19        0.000001536998    -0.000003043256    -0.000001350123
      20       -0.000002684179    -0.000009989027    -0.000012268471
      21       -0.004057448709     0.001870839091    -0.000148979278
      22        0.000003441370     0.000003712069    -0.000010536531
      23        0.000009147999     0.000016067015    -0.000001961194
      24       -0.000000236312    -0.000000903695     0.000005785346
      25       -0.000008842880    -0.000007412807     0.000002515081
      26       -0.000026595033    -0.000007382755     0.000016294904
      27        0.000011140032     0.000006009694    -0.000001187850
      28        0.000015698987     0.000005330440    -0.000004711554
      29        0.000003336109    -0.000012539920    -0.000001862096

  **** Optimization is complete! (in 12 steps) ****
    Final optimized geometry and variables:
    Molecular point group: c1

    Geometry (in Angstrom), charge = 0, multiplicity = 1:

    O            2.659283527720     1.364039270598    -1.309397566511
    C            2.394655036720     0.804744373360    -0.300390387581
    C            1.006512924181     0.594400653094     0.248619309938
    O            3.310344555596     0.278035063080     0.496801376538
    C           -0.090053929432     1.176339816376    -0.634668281150
    H            0.885665735805    -0.471814663698     0.397249925090
    H            0.984985691845     1.036538573949     1.239795853507
    C           -1.494059602048     1.051478510387    -0.041155125395
    H           -0.058323141383     0.697375958637    -1.607147543692
    H            0.128173300591     2.222486588906    -0.810691788472
    C           -2.020534711571    -0.378314060600     0.079321008424
    H           -2.175001360595     1.619706514414    -0.667855971139
    H           -1.516958163703     1.528124200371     0.936343011191
    C           -3.466580673243    -0.416346994259     0.575155144128
    H           -1.949193748625    -0.861550509252    -0.889688694180
    H           -1.388403607880    -0.947102596509     0.754023221522
    C           -4.116898298671    -1.812448043328     0.745782671957
    H           -4.063813990109     0.160377961886    -0.124867416838
    H           -3.526809036107     0.116207200266     1.518596204534
    C           -3.421111672706    -2.997305538348     0.080712892051
    H           -4.251006794016    -2.017528365172     1.802886307937
    H           -5.127340169971    -1.758556452385     0.352992764898
    H           -3.987507956780    -3.904446828533     0.257664544809
    H           -2.422000671078    -3.156207740788     0.467577503377
    H           -3.344255523968    -2.866549564364    -0.992727440268
    C            4.661996810282     0.403393388363     0.104176798404
    H            4.829059332668    -0.078506594872    -0.847726827251
    H            5.241678147656    -0.080978865126     0.873130727248
    H            4.941705276842     1.443551576260     0.026187907668

  Mulliken Charges: (a.u.)
   Center  Symbol    Alpha    Beta     Spin     Total
       1     O     4.19695  4.19695  0.00000 -0.39391
       2     C     2.80491  2.80491  0.00000  0.39018
       3     C     3.10161  3.10161  0.00000 -0.20321
       4     O     4.14726  4.14726  0.00000 -0.29452
       5     C     3.09224  3.09224  0.00000 -0.18448
       6     H     0.43929  0.43929  0.00000  0.12143
       7     H     0.43988  0.43988  0.00000  0.12024
       8     C     3.10402  3.10402  0.00000 -0.20804
       9     H     0.44652  0.44652  0.00000  0.10695
      10     H     0.43969  0.43969  0.00000  0.12062
      11     C     3.09558  3.09558  0.00000 -0.19115
      12     H     0.44542  0.44542  0.00000  0.10916
      13     H     0.45362  0.45362  0.00000  0.09276
      14     C     3.09782  3.09782  0.00000 -0.19563
      15     H     0.44986  0.44986  0.00000  0.10028
      16     H     0.45215  0.45215  0.00000  0.09570
      17     C     3.08741  3.08741  0.00000 -0.17482
      18     H     0.45188  0.45188  0.00000  0.09624
      19     H     0.45062  0.45062  0.00000  0.09876
      20     C     3.15697  3.15697  0.00000 -0.31394
      21     H     0.45204  0.45204  0.00000  0.09592
      22     H     0.45183  0.45183  0.00000  0.09635
      23     H     0.44416  0.44416  0.00000  0.11167
      24     H     0.45348  0.45348  0.00000  0.09303
      25     H     0.45277  0.45277  0.00000  0.09447
      26     C     3.03815  3.03815  0.00000 -0.07629
      27     H     0.45436  0.45436  0.00000  0.09128
      28     H     0.44529  0.44529  0.00000  0.10943
      29     H     0.45424  0.45424  0.00000  0.09153

   Total alpha = 44.00000, Total beta = 44.00000, Total charge = -0.00000

*** Psi4 exiting successfully. Buy a developer a beer!
