                              Psi4 1.0.54 Driver

  ==> Input File <==

--------------------------------------------------------------------------
set {
	reference rhf
	basis cc-pvtz
}

set_num_threads( 4 )
memory 2 gb

molecule MOL {
0 1

H	 -3.294565	 0.569785	 0.000000
C	 -2.246225	 0.343737	 0.000000
C	 -1.809462	 -0.973484	 0.000000
C	 -1.312577	 1.353775	 0.000000
H	 -2.523539	 -1.775124	 0.000000
C	 -0.467257	 -1.267606	 0.000000
H	 -1.631287	 2.379013	 0.000000
C	 0.046966	 1.074396	 0.000000
H	 -0.119372	 -2.281828	 0.000000
C	 0.471772	 -0.241514	 0.000000
H	 0.748162	 1.882966	 0.000000
O	 1.760432	 -0.625184	 0.000000
C	 2.752755	 0.264985	 0.413586
H	 2.783671	 1.146924	 -0.216443
H	 3.689927	 -0.261892	 0.327125
H	 2.611093	 0.567275	 1.445216

	symmetry c1
}
set optking {
	frozen_dihedral = ("
		13 12 10 8
	")
}

ee,wfn = optimize('scf', return_wfn=True)
oeprop( wfn, 'DIPOLE', 'QUADRUPOLE', 'MULLIKEN_CHARGES')
f=open( 'psi4out.xyz', 'w' )
f.write( "16  " )
f.write( str(ee) + "\n" )
f.write( MOL.save_string_xyz() )
f.close()
--------------------------------------------------------------------------

    Molecular point group: c1
  Charge       = 0
  Multiplicity = 1
  Basis Set: CC-PVTZ
  Basis Set:
  @DF-RHF Final Energy:  -344.70269657034464
    Total Energy =                       -344.7026965703444148
    Molecular point group: c1
  Basis Set: CC-PVTZ
  Basis Set:
  Basis Set: CC-PVTZ
  Basis Set:
  @DF-RHF Final Energy:  -344.70247434341871
    Total Energy =                       -344.7024743434187712
  Basis Set: CC-PVTZ
  Basis Set:
  Basis Set: CC-PVTZ
  Basis Set:
  @DF-RHF Final Energy:  -344.70315608532849
    Total Energy =                       -344.7031560853284873
  Basis Set: CC-PVTZ
  Basis Set:
  Basis Set: CC-PVTZ
  Basis Set:
  @DF-RHF Final Energy:  -344.70316973710447
    Total Energy =                       -344.7031697371043037
  Basis Set: CC-PVTZ
  Basis Set:
  Charge       = 0
  Multiplicity = 1
  Basis Set: CC-PVTZ
  Basis Set:

    Orbital Energies (a.u.)
    -----------------------

    Doubly Occupied:

       1A    -20.578833     2A    -11.292864     3A    -11.278161
       4A    -11.231378     5A    -11.230098     6A    -11.222232
       7A    -11.218348     8A    -11.217587     9A     -1.418096
      10A     -1.151144    11A     -1.025253    12A     -1.016850
      13A     -0.943439    14A     -0.834944    15A     -0.808523
      16A     -0.725265    17A     -0.667770    18A     -0.666985
      19A     -0.658855    20A     -0.618920    21A     -0.590889
      22A     -0.580627    23A     -0.529310    24A     -0.521710
      25A     -0.511640    26A     -0.481431    27A     -0.463571
      28A     -0.339766    29A     -0.311306

  @DF-RHF Final Energy:  -344.70317055225689

   => Energetics <=

    Nuclear Repulsion Energy =            348.8303771779956151
    One-Electron Energy =               -1158.7955012627580800
    Two-Electron Energy =                 465.2619535325054585
    DFT Exchange-Correlation Energy =       0.0000000000000000
    Empirical Dispersion Energy =           0.0000000000000000
    PCM Polarization Energy =               0.0000000000000000
    EFP Energy =                            0.0000000000000000
    Total Energy =                       -344.7031705522570064
    Molecular point group: c1
  Basis Set: CC-PVTZ
  Basis Set:

  -Total Gradient:
     Atom            X                  Y                   Z
    ------   -----------------  -----------------  -----------------
       1        0.000002196908    -0.000004075863    -0.000002576305
       2        0.000037550787     0.000171507020     0.000009354916
       3        0.000131176794    -0.000107429352     0.000018376938
       4       -0.000176230010    -0.000045952725    -0.000010791303
       5       -0.000001002806     0.000007971263    -0.000002209671
       6       -0.000157546803    -0.000038465555    -0.000002899115
       7        0.000000649042     0.000004063872     0.000002646800
       8        0.000053341254    -0.000060112257    -0.001434643179
       9        0.000015295197    -0.000000468636     0.000000259382
      10        0.000041341508    -0.000126734746     0.002885483134
      11       -0.000041748486    -0.000004218154    -0.000013914150
      12        0.000155082285     0.000707604970    -0.002761052272
      13       -0.000098838066    -0.000516197373     0.001334611778
      14       -0.000007380445     0.000030364458    -0.000033435134
      15        0.000016689804    -0.000007042436     0.000009701701
      16        0.000029423039    -0.000010814486     0.000001086480

  **** Optimization is complete! (in 5 steps) ****
    Final optimized geometry and variables:
    Molecular point group: c1

    Geometry (in Angstrom), charge = 0, multiplicity = 1:

    H           -3.293209171950     0.568453474988    -0.067657778287
    C           -2.244281686653     0.344983431590    -0.062053598997
    C           -1.804987792174    -0.970424897565    -0.081707226101
    C           -1.313285547804     1.358225722523    -0.036196972056
    H           -2.517329213363    -1.773319208720    -0.102463106689
    C           -0.461157499015    -1.261545894504    -0.071485262606
    H           -1.634981417909     2.382443734500    -0.024049858449
    C            0.045814786024     1.081105024827    -0.030086992908
    H           -0.110615619710    -2.274752433597    -0.086530409526
    C            0.473821909211    -0.233816920842    -0.042638367879
    H            0.747675140450     1.889495708169    -0.015779687592
    O            1.766992034421    -0.607224527314    -0.068447968501
    C            2.756894340612     0.294322594126     0.330771465328
    H            2.883021484290     1.095782846455    -0.388448111229
    H            3.676403627366    -0.266887624958     0.389374423572
    H            2.534442935354     0.718788635380     1.303252136789

  Mulliken Charges: (a.u.)
   Center  Symbol    Alpha    Beta     Spin     Total
       1     H     0.42433  0.42433  0.00000  0.15134
       2     C     3.09969  3.09969  0.00000 -0.19938
       3     C     3.05888  3.05888  0.00000 -0.11777
       4     C     3.06146  3.06146  0.00000 -0.12292
       5     H     0.42291  0.42291  0.00000  0.15419
       6     C     3.11099  3.11099  0.00000 -0.22198
       7     H     0.42339  0.42339  0.00000  0.15322
       8     C     3.13867  3.13867  0.00000 -0.27734
       9     H     0.42043  0.42043  0.00000  0.15913
      10     C     2.85411  2.85411  0.00000  0.29178
      11     H     0.42262  0.42262  0.00000  0.15476
      12     O     4.15394  4.15394  0.00000 -0.30788
      13     C     3.04536  3.04536  0.00000 -0.09072
      14     H     0.46212  0.46212  0.00000  0.07575
      15     H     0.43963  0.43963  0.00000  0.12074
      16     H     0.46147  0.46147  0.00000  0.07706

   Total alpha = 29.00000, Total beta = 29.00000, Total charge = -0.00000

*** Psi4 exiting successfully. Buy a developer a beer!
