                              Psi4 1.0.54 Driver

  ==> Input File <==

--------------------------------------------------------------------------
set {
	reference rhf
	basis cc-pvtz
}

set_num_threads( 4 )
memory 2 gb

molecule MOL {
0 1

H	 -1.574538	 -1.525845	 1.476560
N	 -0.792691	 -0.909394	 1.411170
C	 -0.561396	 -0.500007	 0.035200
H	 -0.001318	 -1.397427	 1.775708
C	 0.575129	 0.507849	 -0.048832
H	 -1.473047	 -0.040708	 -0.332433
H	 -0.344764	 -1.339182	 -0.627574
C	 1.951750	 -0.141983	 0.035101
H	 0.478254	 1.061643	 -0.975981
H	 0.467676	 1.231891	 0.755499
H	 2.101550	 -0.848142	 -0.774949
H	 2.738260	 0.600794	 -0.026526
H	 2.078939	 -0.679792	 0.968824

	symmetry c1
}
set optking {
	frozen_dihedral = ("
		6 3 5 9
	")
}

ee,wfn = optimize('scf', return_wfn=True)
oeprop( wfn, 'DIPOLE', 'QUADRUPOLE', 'MULLIKEN_CHARGES')
f=open( 'psi4out.xyz', 'w' )
f.write( "13  " )
f.write( str(ee) + "\n" )
f.write( MOL.save_string_xyz() )
f.close()
--------------------------------------------------------------------------

    Molecular point group: c1
  Charge       = 0
  Multiplicity = 1
  Basis Set: CC-PVTZ
  Basis Set:
  @DF-RHF Final Energy:  -173.35048226851785
    Total Energy =                       -173.3504822685177942
    Molecular point group: c1
  Basis Set: CC-PVTZ
  Basis Set:
  Basis Set: CC-PVTZ
  Basis Set:
  @DF-RHF Final Energy:  -173.35069868901860
    Total Energy =                       -173.3506986890184862
  Basis Set: CC-PVTZ
  Basis Set:
  Basis Set: CC-PVTZ
  Basis Set:
  @DF-RHF Final Energy:  -173.35073967075718
    Total Energy =                       -173.3507396707570365
  Basis Set: CC-PVTZ
  Basis Set:
  Basis Set: CC-PVTZ
  Basis Set:
  @DF-RHF Final Energy:  -173.35074138917258
    Total Energy =                       -173.3507413891726685
  Basis Set: CC-PVTZ
  Basis Set:
  Charge       = 0
  Multiplicity = 1
  Basis Set: CC-PVTZ
  Basis Set:

    Orbital Energies (a.u.)
    -----------------------

    Doubly Occupied:

       1A    -15.527019     2A    -11.238523     3A    -11.210007
       4A    -11.207880     5A     -1.178611     6A     -1.033595
       7A     -0.907455     8A     -0.791914     9A     -0.668923
      10A     -0.638667    11A     -0.573981    12A     -0.566370
      13A     -0.560834    14A     -0.483396    15A     -0.478168
      16A     -0.469112    17A     -0.383918

  @DF-RHF Final Energy:  -173.35074179725694

   => Energetics <=

    Nuclear Repulsion Energy =            133.4744427968890363
    One-Electron Energy =                -497.8136174517778159
    Two-Electron Energy =                 190.9884328576318069
    DFT Exchange-Correlation Energy =       0.0000000000000000
    Empirical Dispersion Energy =           0.0000000000000000
    PCM Polarization Energy =               0.0000000000000000
    EFP Energy =                            0.0000000000000000
    Total Energy =                       -173.3507417972569726
    Molecular point group: c1
  Basis Set: CC-PVTZ
  Basis Set:

  -Total Gradient:
     Atom            X                  Y                   Z
    ------   -----------------  -----------------  -----------------
       1       -0.000022111322    -0.000030828079     0.000029954188
       2       -0.000034066207     0.000037483589    -0.000048147997
       3       -0.001192699345     0.001726188643     0.003828088416
       4        0.000032099449    -0.000009036409    -0.000003654943
       5        0.002338162499    -0.002867202045    -0.002370733952
       6        0.000668057251    -0.000974755191    -0.002830937352
       7       -0.000001582167    -0.000028831912    -0.000007352843
       8       -0.000035864265     0.000018616668    -0.000013589042
       9       -0.001743504493     0.002095959636     0.001389456976
      10       -0.000000040879     0.000020730730     0.000022076373
      11       -0.000002470652     0.000002547911     0.000011857011
      12       -0.000002272405     0.000012236826    -0.000002257122
      13       -0.000003707464    -0.000003110366    -0.000004759714

  **** Optimization is complete! (in 5 steps) ****
    Final optimized geometry and variables:
    Molecular point group: c1

    Geometry (in Angstrom), charge = 0, multiplicity = 1:

    H           -1.897786761576    -1.237232746622     1.063910357260
    N           -1.095571393683    -0.645404351504     1.018743987468
    C           -0.850280487182    -0.209307994197    -0.347375666342
    H           -0.326163793841    -1.173788894580     1.372293257373
    C            0.290790302013     0.799947374834    -0.427743140104
    H           -1.755604249519     0.250527290228    -0.725897072006
    H           -0.633894941682    -1.040233084331    -1.022224725161
    C            1.681275396861     0.182950886514    -0.315643297798
    H            0.204446984398     1.350186547329    -1.359633837715
    H            0.149999858185     1.527372354563     0.365002435509
    H            1.855538929680    -0.538095084923    -1.107625891276
    H            2.450232918724     0.943431888409    -0.385767875169
    H            1.818579407922    -0.325700927903     0.632675065444

  Mulliken Charges: (a.u.)
   Center  Symbol    Alpha    Beta     Spin     Total
       1     H     0.42898  0.42898  0.00000  0.14205
       2     N     3.68917  3.68917  0.00000 -0.37835
       3     C     3.03002  3.03002  0.00000 -0.06004
       4     H     0.43053  0.43053  0.00000  0.13893
       5     C     3.08551  3.08551  0.00000 -0.17102
       6     H     0.45273  0.45273  0.00000  0.09454
       7     H     0.46848  0.46848  0.00000  0.06304
       8     C     3.14971  3.14971  0.00000 -0.29942
       9     H     0.45351  0.45351  0.00000  0.09297
      10     H     0.45086  0.45086  0.00000  0.09828
      11     H     0.45572  0.45572  0.00000  0.08857
      12     H     0.44695  0.44695  0.00000  0.10610
      13     H     0.45782  0.45782  0.00000  0.08436

   Total alpha = 17.00000, Total beta = 17.00000, Total charge =  0.00000

*** Psi4 exiting successfully. Buy a developer a beer!
