  ==> Input File <==

--------------------------------------------------------------------------
set {
	reference rhf
	basis 6-31G*
}

set_num_threads( 1 )
memory 2 gb

molecule MOL {
0 1

H	 -1.185878	 -0.702087	 0.820912
N	 -0.626943	 -0.667432	 -0.000092
C	 -1.027438	 -1.469021	 -1.134013
C	 0.469286	 0.129090	 0.000148
H	 -1.044757	 -2.523096	 -0.877827
H	 -0.313161	 -1.313041	 -1.925976
H	 -2.012168	 -1.180214	 -1.486048
C	 1.788933	 -0.616240	 -0.000037
O	 0.411098	 1.327768	 -0.000049
H	 1.872803	 -1.245775	 -0.880381
H	 2.595421	 0.101576	 0.003713
H	 1.870096	 -1.252171	 0.875943

	symmetry c1
}
set optking {
	frozen_dihedral = ("
		4 2 3 5
	")
}

ee = energy('scf')
oeprop('DIPOLE', 'QUADRUPOLE', 'MULLIKEN_CHARGES')
f=open( 'psi4out.xyz', 'w' )
f.write( "12  " )
f.write( str(ee) + "\n" )
f.write( MOL.save_string_xyz() )
f.close()
--------------------------------------------------------------------------

    Molecular point group: c1

    Geometry (in Angstrom), charge = 0, multiplicity = 1:

       Center              X                  Y                   Z               Mass
    ------------   -----------------  -----------------  -----------------  -----------------
           H         -1.382475944016    -0.431584947972     1.055067552295     1.007825032070
           N         -0.823540944016    -0.396929947972     0.234063552295    14.003074004780
           C         -1.224035944016    -1.198518947972    -0.899857447705    12.000000000000
           C          0.272688055984     0.399592052028     0.234303552295    12.000000000000
           H         -1.241354944016    -2.252593947972    -0.643671447705     1.007825032070
           H         -0.509758944016    -1.042538947972    -1.691820447705     1.007825032070
           H         -2.208765944016    -0.909711947972    -1.251892447705     1.007825032070
           C          1.592335055984    -0.345737947972     0.234118552295    12.000000000000
           O          0.214500055984     1.598270052028     0.234106552295    15.994914619560
           H          1.676205055984    -0.975272947972    -0.646225447705     1.007825032070
           H          2.398823055984     0.372078052028     0.237868552295     1.007825032070
           H          1.673498055984    -0.981668947972     1.110098552295     1.007825032070

  Charge       = 0
  Multiplicity = 1
  Basis Set: 6-31G*
  Basis Set:

    Orbital Energies (a.u.)
    -----------------------

    Doubly Occupied:

       1A    -20.542900     2A    -15.549288     3A    -11.347118
       4A    -11.264625     5A    -11.224212     6A     -1.395381
       7A     -1.221734     8A     -1.002810     9A     -0.943223
      10A     -0.782886    11A     -0.680745    12A     -0.652136
      13A     -0.640525    14A     -0.592074    15A     -0.579927
      16A     -0.567034    17A     -0.552602    18A     -0.487342
      19A     -0.423744    20A     -0.371287

  @DF-RHF Final Energy:  -246.96774872631076

   => Energetics <=

    Nuclear Repulsion Energy =            181.2618911665092867
    One-Electron Energy =                -694.8160745845469819
    Two-Electron Energy =                 266.5864346917269927
    DFT Exchange-Correlation Energy =       0.0000000000000000
    Empirical Dispersion Energy =           0.0000000000000000
    PCM Polarization Energy =               0.0000000000000000
    EFP Energy =                            0.0000000000000000
    Total Energy =                       -246.9677487263107309

  Mulliken Charges: (a.u.)
   Center  Symbol    Alpha    Beta     Spin     Total
       1     H     0.30766  0.30766  0.00000  0.38468
       2     N     3.90130  3.90130  0.00000 -0.80260
       3     C     3.13308  3.13308  0.00000 -0.26616
       4     C     2.66237  2.66237  0.00000  0.67526
       5     H     0.41898  0.41898  0.00000  0.16204
       6     H     0.41284  0.41284  0.00000  0.17431
       7     H     0.41000  0.41000  0.00000  0.17999
       8     C     3.27930  3.27930  0.00000 -0.55860
       9     O     4.25523  4.25523  0.00000 -0.51046
      10     H     0.41079  0.41079  0.00000  0.17842
      11     H     0.40093  0.40093  0.00000  0.19813
      12     H     0.40751  0.40751  0.00000  0.18498

   Total alpha = 20.00000, Total beta = 20.00000, Total charge = -0.00000
