  ==> Input File <==

--------------------------------------------------------------------------
set {
	reference rhf
	basis 6-31G*
}

set_num_threads( 4 )
memory 2 gb

molecule MOL {
0 1

H	 1.782991	 -0.877345	 0.783646
C	 0.923515	 -0.965493	 0.133388
O	 0.000000	 0.000000	 0.521119
H	 1.244725	 -0.819172	 -0.896711
H	 0.513190	 -1.969840	 0.226176
C	 -1.165642	 0.000000	 -0.238270
H	 -1.228672	 0.883184	 -0.872070
H	 -2.003012	 0.000000	 0.445920
H	 -1.228672	 -0.883184	 -0.872070

	symmetry c1
}
set optking {
	frozen_dihedral = ("
		2 3 6 7
	")
}

ee = optimize('scf')
oeprop('DIPOLE', 'QUADRUPOLE', 'MULLIKEN_CHARGES')
f=open( 'psi4out.xyz', 'w' )
f.write( "9  " )
f.write( str(ee) + "\n" )
f.write( MOL.save_string_xyz() )
f.close()
--------------------------------------------------------------------------

    Molecular point group: c1
  Charge       = 0
  Multiplicity = 1
  Basis Set: 6-31G*
  Basis Set:
  @DF-RHF Final Energy:  -154.06046613656463
    Total Energy =                       -154.0604661365646848
    Molecular point group: c1
  Basis Set: 6-31G*
  Basis Set:
  Basis Set: 6-31G*
  Basis Set:
  @DF-RHF Final Energy:  -154.06076157967357
    Total Energy =                       -154.0607615796737377
  Basis Set: 6-31G*
  Basis Set:
  Basis Set: 6-31G*
  Basis Set:
  @DF-RHF Final Energy:  -154.06084033665951
    Total Energy =                       -154.0608403366594814
  Basis Set: 6-31G*
  Basis Set:
  Charge       = 0
  Multiplicity = 1
  Basis Set: 6-31G*
  Basis Set:

    Orbital Energies (a.u.)
    -----------------------

    Doubly Occupied:

       1A    -20.552361     2A    -11.265620     3A    -11.264630
       4A     -1.374134     5A     -0.974951     6A     -0.872759
       7A     -0.656631     8A     -0.653105     9A     -0.642826
      10A     -0.558448    11A     -0.528325    12A     -0.473079
      13A     -0.411616

  @DF-RHF Final Energy:  -154.06084093383669

   => Energetics <=

    Nuclear Repulsion Energy =             84.4821182714071739
    One-Electron Energy =                -376.6289484660549078
    Two-Electron Energy =                 138.0859892608110897
    DFT Exchange-Correlation Energy =       0.0000000000000000
    Empirical Dispersion Energy =           0.0000000000000000
    PCM Polarization Energy =               0.0000000000000000
    EFP Energy =                            0.0000000000000000
    Total Energy =                       -154.0608409338366585
    Molecular point group: c1
  Basis Set: 6-31G*
  Basis Set:

  -Total Gradient:
     Atom            X                  Y                   Z
    ------   -----------------  -----------------  -----------------
       1        0.000040086433    -0.000036238072    -0.000008176315
       2       -0.000436102951    -0.000912453231     0.000945749623
       3        0.000508901573     0.001502376081    -0.001012773279
       4       -0.000039175820     0.000003761361     0.000013984741
       5       -0.000039776685     0.000046648181    -0.000006694524
       6        0.000785745931    -0.001444661968    -0.001188153120
       7       -0.000799690412     0.000845694265     0.001271467310
       8       -0.000014074185    -0.000001046745    -0.000008726246
       9       -0.000005913884    -0.000004079872    -0.000006678190

  **** Optimization is complete! (in 4 steps) ****
    Final optimized geometry and variables:
    Molecular point group: c1

    Geometry (in Angstrom), charge = 0, multiplicity = 1:

    H            1.871256479329    -0.531028660322     0.670251879747
    C            1.021385041335    -0.633759728480     0.009358147206
    O            0.084019534747     0.325017389537     0.383673718518
    H            1.357895882204    -0.491879929724    -1.016035297409
    H            0.622838309794    -1.641700448200     0.105744003811
    C           -1.097939805931     0.336779676064    -0.361250691335
    H           -1.143346063816     1.226938582706    -0.981496852721
    H           -1.941524773078     0.354331708330     0.319430615664
    H           -1.189046355376    -0.538832477448    -0.997150449114

  Mulliken Charges: (a.u.)
   Center  Symbol    Alpha    Beta     Spin     Total
       1     H     0.41271  0.41271  0.00000  0.17458
       2     C     3.07890  3.07890  0.00000 -0.15779
       3     O     4.30014  4.30014  0.00000 -0.60027
       4     H     0.43026  0.43026  0.00000  0.13948
       5     H     0.42991  0.42991  0.00000  0.14019
       6     C     3.07766  3.07766  0.00000 -0.15531
       7     H     0.42239  0.42239  0.00000  0.15522
       8     H     0.41796  0.41796  0.00000  0.16407
       9     H     0.43008  0.43008  0.00000  0.13984

   Total alpha = 13.00000, Total beta = 13.00000, Total charge = -0.00000
