  ==> Input File <==

--------------------------------------------------------------------------
set {
	reference rhf
	basis cc-pvtz
}

set_num_threads( 4 )
memory 2 gb

molecule MOL {
0 1

H	 1.039608	 1.848548	 0.142167
O	 0.222817	 1.372822	 0.144169
C	 0.489979	 0.078084	 0.002623
C	 -0.763662	 -0.754014	 0.000816
O	 1.594710	 -0.330850	 -0.098637
C	 -2.038001	 0.074705	 -0.000833
H	 -0.712945	 -1.405886	 -0.864342
H	 -0.715137	 -1.405770	 0.866182
H	 -2.087267	 0.710831	 -0.874232
H	 -2.903419	 -0.576199	 -0.001922
H	 -2.089467	 0.710909	 0.872389

	symmetry c1
}
set optking {
	frozen_dihedral = ("
		2 3 4 7
	")
}

ee = optimize('scf')
oeprop('DIPOLE', 'QUADRUPOLE', 'MULLIKEN_CHARGES')
f=open( 'psi4out.xyz', 'w' )
f.write( "11  " )
f.write( str(ee) + "\n" )
f.write( MOL.save_string_xyz() )
f.close()
--------------------------------------------------------------------------

    Molecular point group: c1
  Charge       = 0
  Multiplicity = 1
  Basis Set: CC-PVTZ
  Basis Set:
  @DF-RHF Final Energy:  -266.94925713902177
    Total Energy =                       -266.9492571390218245
    Molecular point group: c1
  Basis Set: CC-PVTZ
  Basis Set:
  Basis Set: CC-PVTZ
  Basis Set:
  @DF-RHF Final Energy:  -266.95016406128877
    Total Energy =                       -266.9501640612887741
  Basis Set: CC-PVTZ
  Basis Set:
  Basis Set: CC-PVTZ
  Basis Set:
  @DF-RHF Final Energy:  -266.95017089535048
    Total Energy =                       -266.9501708953504249
  Basis Set: CC-PVTZ
  Basis Set:
  Basis Set: CC-PVTZ
  Basis Set:
  @DF-RHF Final Energy:  -266.95046747028118
    Total Energy =                       -266.9504674702810121
  Basis Set: CC-PVTZ
  Basis Set:
  Basis Set: CC-PVTZ
  Basis Set:
  @DF-RHF Final Energy:  -266.95049316142587
    Total Energy =                       -266.9504931614259249
  Basis Set: CC-PVTZ
  Basis Set:
  Charge       = 0
  Multiplicity = 1
  Basis Set: CC-PVTZ
  Basis Set:

    Orbital Energies (a.u.)
    -----------------------

    Doubly Occupied:

       1A    -20.608072     2A    -20.536967     3A    -11.375092
       4A    -11.243303     5A    -11.223097     6A     -1.479978
       7A     -1.368820     8A     -1.067338     9A     -0.910673
      10A     -0.827113    11A     -0.706009    12A     -0.676474
      13A     -0.665178    14A     -0.598254    15A     -0.589176
      16A     -0.557063    17A     -0.524120    18A     -0.519420
      19A     -0.474175    20A     -0.443319

  @DF-RHF Final Energy:  -266.95049800871232

   => Energetics <=

    Nuclear Repulsion Energy =            180.4028170267990276
    One-Electron Energy =                -721.9193476043947157
    Two-Electron Energy =                 274.5660325688833154
    DFT Exchange-Correlation Energy =       0.0000000000000000
    Empirical Dispersion Energy =           0.0000000000000000
    PCM Polarization Energy =               0.0000000000000000
    EFP Energy =                            0.0000000000000000
    Total Energy =                       -266.9504980087123158
    Molecular point group: c1
  Basis Set: CC-PVTZ
  Basis Set:

  -Total Gradient:
     Atom            X                  Y                   Z
    ------   -----------------  -----------------  -----------------
       1       -0.000013131277    -0.000022932239     0.000002622139
       2       -0.000006242762     0.000137022912    -0.000202127011
       3        0.000115334485    -0.000170112631     0.000248874033
       4        0.000107528313    -0.000088894897     0.000077224101
       5       -0.000032446347     0.000059482638    -0.000006141496
       6       -0.000039731483    -0.000033339587    -0.000013928891
       7       -0.000107749010     0.000160518098    -0.000124858040
       8       -0.000005362850    -0.000032287391     0.000015693324
       9       -0.000000182941    -0.000010050335     0.000016230830
      10       -0.000023695176     0.000012222771     0.000001538371
      11        0.000005679053    -0.000011629339    -0.000015127361

  **** Optimization is complete! (in 6 steps) ****
    Final optimized geometry and variables:
    Molecular point group: c1

    Geometry (in Angstrom), charge = 0, multiplicity = 1:

    H            1.226796318747     1.700233307587     0.122670630591
    O            0.381606291341     1.276045960968     0.121687928573
    C            0.574960764033    -0.030596522320    -0.006508788282
    C           -0.694023297767    -0.848575578281    -0.013384065541
    O            1.657593658566    -0.498578315965    -0.100119303341
    C           -2.006720855082    -0.076658753236    -0.013345553471
    H           -0.622599938458    -1.496367103635    -0.878191534383
    H           -0.628359130007    -1.499137392644     0.851463018309
    H           -2.089606815470     0.563004862010    -0.882249423662
    H           -2.837431267836    -0.771352778427    -0.026532723770
    H           -2.101043553662     0.545557611785     0.866294319875

  Mulliken Charges: (a.u.)
   Center  Symbol    Alpha    Beta     Spin     Total
       1     H     0.38393  0.38393  0.00000  0.23214
       2     O     4.15143  4.15143  0.00000 -0.30287
       3     C     2.80606  2.80606  0.00000  0.38788
       4     C     3.09742  3.09742  0.00000 -0.19484
       5     O     4.19820  4.19820  0.00000 -0.39641
       6     C     3.14190  3.14190  0.00000 -0.28380
       7     H     0.43632  0.43632  0.00000  0.12737
       8     H     0.43857  0.43857  0.00000  0.12286
       9     H     0.44887  0.44887  0.00000  0.10227
      10     H     0.44917  0.44917  0.00000  0.10166
      11     H     0.44814  0.44814  0.00000  0.10372

   Total alpha = 20.00000, Total beta = 20.00000, Total charge =  0.00000
