                              Psi4 1.0.54 Driver

  ==> Input File <==

--------------------------------------------------------------------------
set {
	reference rhf
	basis cc-pvtz
}

set_num_threads( 4 )
memory 2 gb

molecule MOL {
0 1

H	 1.113071	 -0.529509	 0.439840
C	 0.848385	 0.440008	 0.000011
C	 -0.623497	 0.751021	 0.000090
O	 1.692432	 1.148794	 -0.427133
C	 -1.523725	 -0.474323	 -0.000013
H	 -0.813143	 1.382932	 -0.864897
H	 -0.813071	 1.382716	 0.865253
H	 -1.342980	 -1.087348	 -0.873016
H	 -2.565269	 -0.177464	 0.000070
H	 -1.342898	 -1.087564	 0.872820

	symmetry c1
}
set optking {
	frozen_dihedral = ("
		4 2 3 6
	")
}

ee,wfn = optimize('scf', return_wfn=True)
oeprop( wfn, 'DIPOLE', 'QUADRUPOLE', 'MULLIKEN_CHARGES')
f=open( 'psi4out.xyz', 'w' )
f.write( "10  " )
f.write( str(ee) + "\n" )
f.write( MOL.save_string_xyz() )
f.close()
--------------------------------------------------------------------------

    Molecular point group: c1
  Charge       = 0
  Multiplicity = 1
  Basis Set: CC-PVTZ
  Basis Set:
  @DF-RHF Final Energy:  -192.02226950768193
    Total Energy =                       -192.0222695076818127
    Molecular point group: c1
  Basis Set: CC-PVTZ
  Basis Set:
  Basis Set: CC-PVTZ
  Basis Set:
  @DF-RHF Final Energy:  -192.02202912892605
    Total Energy =                       -192.0220291289261354
  Basis Set: CC-PVTZ
  Basis Set:
  Basis Set: CC-PVTZ
  Basis Set:
  @DF-RHF Final Energy:  -192.02217506619243
    Total Energy =                       -192.0221750661924602
  Basis Set: CC-PVTZ
  Basis Set:
  Basis Set: CC-PVTZ
  Basis Set:
  @DF-RHF Final Energy:  -192.02262366129943
    Total Energy =                       -192.0226236612993489
  Basis Set: CC-PVTZ
  Basis Set:
  Charge       = 0
  Multiplicity = 1
  Basis Set: CC-PVTZ
  Basis Set:

    Orbital Energies (a.u.)
    -----------------------

    Doubly Occupied:

       1A    -20.553021     2A    -11.323463     3A    -11.238418
       4A    -11.230851     5A     -1.408654     6A     -1.068060
       7A     -0.903480     8A     -0.797733     9A     -0.667940
      10A     -0.643869    11A     -0.631998    12A     -0.558710
      13A     -0.546479    14A     -0.523350    15A     -0.494708
      16A     -0.415116

  @DF-RHF Final Energy:  -192.02262660232375

   => Energetics <=

    Nuclear Repulsion Energy =            117.2242202685172003
    One-Electron Energy =                -492.4819957109906454
    Two-Electron Energy =                 183.2351488401496908
    DFT Exchange-Correlation Energy =       0.0000000000000000
    Empirical Dispersion Energy =           0.0000000000000000
    PCM Polarization Energy =               0.0000000000000000
    EFP Energy =                            0.0000000000000000
    Total Energy =                       -192.0226266023237258
    Molecular point group: c1
  Basis Set: CC-PVTZ
  Basis Set:

  -Total Gradient:
     Atom            X                  Y                   Z
    ------   -----------------  -----------------  -----------------
       1       -0.000030920468    -0.000046500425     0.000012292801
       2       -0.000153821847    -0.000785197284    -0.001665065021
       3        0.000283160989     0.001081290809     0.001174094971
       4        0.000034725945     0.000462058981     0.001076841932
       5        0.000060660380     0.000109129328    -0.000001918980
       6       -0.000212086715    -0.000869743524    -0.000617855872
       7        0.000025931683     0.000047007304     0.000027331658
       8       -0.000002607185    -0.000008141421    -0.000008171482
       9       -0.000012597362     0.000001403167     0.000000197268
      10        0.000007554581     0.000008693067     0.000002252724

  **** Optimization is complete! (in 5 steps) ****
    Final optimized geometry and variables:
    Molecular point group: c1

    Geometry (in Angstrom), charge = 0, multiplicity = 1:

    H            1.035819015572    -0.994130422263     0.533886733499
    C            0.752356478898    -0.029589720309     0.092058324110
    C           -0.719743551747     0.298218799528     0.129197682675
    O            1.582462329359     0.687472067566    -0.347086294985
    C           -1.611654065811    -0.938771857563     0.135225034656
    H           -0.939736918360     0.942137805891    -0.712294489259
    H           -0.883467688293     0.881763912234     1.031607037408
    H           -1.473907950488    -1.527707004316    -0.764694214072
    H           -2.655239207906    -0.657442207990     0.189534463903
    H           -1.396920459536    -1.576027426649     0.985913154831

  Mulliken Charges: (a.u.)
   Center  Symbol    Alpha    Beta     Spin     Total
       1     H     0.46549  0.46549  0.00000  0.06903
       2     C     2.90304  2.90304  0.00000  0.19391
       3     C     3.08169  3.08169  0.00000 -0.16338
       4     O     4.16406  4.16406  0.00000 -0.32813
       5     C     3.15306  3.15306  0.00000 -0.30612
       6     H     0.43977  0.43977  0.00000  0.12045
       7     H     0.44544  0.44544  0.00000  0.10913
       8     H     0.44965  0.44965  0.00000  0.10070
       9     H     0.44414  0.44414  0.00000  0.11171
      10     H     0.45366  0.45366  0.00000  0.09269

   Total alpha = 16.00000, Total beta = 16.00000, Total charge = -0.00000

*** Psi4 exiting successfully. Buy a developer a beer!
