                              Psi4 1.0.54 Driver

  ==> Input File <==

--------------------------------------------------------------------------
set {
	reference rhf
	basis cc-pvtz
}

set_num_threads( 4 )
memory 2 gb

molecule MOL {
0 1

H	 2.739626	 -0.064113	 0.903667
N	 2.326826	 -0.066186	 0.000000
C	 0.934676	 -0.005420	 0.000000
H	 2.768264	 0.591977	 -0.599147
C	 0.226436	 -0.001077	 -1.195129
C	 0.226436	 -0.001077	 1.195129
H	 0.759091	 -0.011439	 -2.128123
C	 -1.153391	 0.009141	 -1.189028
H	 0.759091	 -0.011439	 2.128123
C	 -1.153391	 0.009141	 1.189028
H	 -1.680905	 0.012964	 -2.124348
C	 -1.857876	 0.014675	 0.000000
H	 -1.680905	 0.012964	 2.124348
H	 -2.930222	 0.022904	 0.000000

	symmetry c1
}
set optking {
	frozen_dihedral = ("
		1 2 3 5
	")
}

ee,wfn = optimize('scf', return_wfn=True)
oeprop( wfn, 'DIPOLE', 'QUADRUPOLE', 'MULLIKEN_CHARGES')
f=open( 'psi4out.xyz', 'w' )
f.write( "14  " )
f.write( str(ee) + "\n" )
f.write( MOL.save_string_xyz() )
f.close()
--------------------------------------------------------------------------

    Molecular point group: c1
  Charge       = 0
  Multiplicity = 1
  Basis Set: CC-PVTZ
  Basis Set:
  @DF-RHF Final Energy:  -285.83237181139191
    Total Energy =                       -285.8323718113919085
    Molecular point group: c1
  Basis Set: CC-PVTZ
  Basis Set:
  Basis Set: CC-PVTZ
  Basis Set:
  @DF-RHF Final Energy:  -285.83252502968242
    Total Energy =                       -285.8325250296827562
  Basis Set: CC-PVTZ
  Basis Set:
  Basis Set: CC-PVTZ
  Basis Set:
  @DF-RHF Final Energy:  -285.83255957023596
    Total Energy =                       -285.8325595702359010
  Basis Set: CC-PVTZ
  Basis Set:
  Basis Set: CC-PVTZ
  Basis Set:
  @DF-RHF Final Energy:  -285.83256627686870
    Total Energy =                       -285.8325662768688176
  Basis Set: CC-PVTZ
  Basis Set:
  Basis Set: CC-PVTZ
  Basis Set:
  @DF-RHF Final Energy:  -285.83256881850906
    Total Energy =                       -285.8325688185089462
  Basis Set: CC-PVTZ
  Basis Set:
  Charge       = 0
  Multiplicity = 1
  Basis Set: CC-PVTZ
  Basis Set:

    Orbital Energies (a.u.)
    -----------------------

    Doubly Occupied:

       1A    -15.553336     2A    -11.269594     3A    -11.226851
       4A    -11.226571     5A    -11.216242     6A    -11.215124
       7A    -11.212025     8A     -1.224181     9A     -1.130199
      10A     -1.013199    11A     -0.987829    12A     -0.832070
      13A     -0.813237    14A     -0.707968    15A     -0.688170
      16A     -0.654168    17A     -0.603550    18A     -0.595852
      19A     -0.582095    20A     -0.527663    21A     -0.506245
      22A     -0.487996    23A     -0.443949    24A     -0.335777
      25A     -0.296362

  @DF-RHF Final Energy:  -285.83256919914459

   => Energetics <=

    Nuclear Repulsion Energy =            273.6625789712213646
    One-Electron Energy =                -928.2897964669746216
    Two-Electron Energy =                 368.7946482966086705
    DFT Exchange-Correlation Energy =       0.0000000000000000
    Empirical Dispersion Energy =           0.0000000000000000
    PCM Polarization Energy =               0.0000000000000000
    EFP Energy =                            0.0000000000000000
    Total Energy =                       -285.8325691991445865
    Molecular point group: c1
  Basis Set: CC-PVTZ
  Basis Set:

  -Total Gradient:
     Atom            X                  Y                   Z
    ------   -----------------  -----------------  -----------------
       1       -0.000151209201    -0.003255319840     0.000104189101
       2        0.000184570085     0.002982790784    -0.000116540177
       3        0.000067323280     0.002697982090     0.000070584408
       4        0.000003786166     0.000024671082    -0.000000594329
       5       -0.000231921524    -0.002440302264     0.000003139210
       6        0.000132739360     0.000003137629    -0.000056652731
       7        0.000008981821     0.000002571936     0.000007929010
       8        0.000116035026    -0.000017127704    -0.000075282091
       9       -0.000009450990    -0.000001022688    -0.000000523308
      10       -0.000116875098    -0.000019364349    -0.000065669349
      11       -0.000010061393    -0.000000048849     0.000004385291
      12        0.000006182290     0.000015766630     0.000128810482
      13        0.000000004340     0.000004241301     0.000001700121
      14       -0.000000104167     0.000002024243    -0.000005475639

  **** Optimization is complete! (in 6 steps) ****
    Final optimized geometry and variables:
    Molecular point group: c1

    Geometry (in Angstrom), charge = 0, multiplicity = 1:

    H            2.755748338484    -0.051982204067     0.888738939976
    N            2.327669930371    -0.059483788954    -0.006557284392
    C            0.934116030618     0.005700394882     0.004901091074
    H            2.779906027110     0.546521135980    -0.650152024162
    C            0.230147039776     0.001710458278    -1.194451492075
    C            0.221727060449    -0.001702248851     1.195199287799
    H            0.770281743915    -0.020738985184    -2.122369607938
    C           -1.147956737128     0.017169447057    -1.194559370868
    H            0.749358889904    -0.003678271040     2.131197955211
    C           -1.160378012553    -0.005379555566     1.184360886184
    H           -1.672652841620     0.020613468913    -2.131437335451
    C           -1.857753531078     0.010583860914    -0.006430384080
    H           -1.691752363090    -0.012727854863     2.117442984149
    H           -2.930198721449     0.014109498856    -0.011574941416

  Mulliken Charges: (a.u.)
   Center  Symbol    Alpha    Beta     Spin     Total
       1     H     0.42260  0.42260  0.00000  0.15480
       2     N     3.67995  3.67995  0.00000 -0.35989
       3     C     2.88303  2.88303  0.00000  0.23395
       4     H     0.41675  0.41675  0.00000  0.16650
       5     C     3.11609  3.11609  0.00000 -0.23217
       6     C     3.12052  3.12052  0.00000 -0.24105
       7     H     0.43006  0.43006  0.00000  0.13987
       8     C     3.05909  3.05909  0.00000 -0.11817
       9     H     0.43508  0.43508  0.00000  0.12984
      10     C     3.05970  3.05970  0.00000 -0.11941
      11     H     0.42466  0.42466  0.00000  0.15067
      12     C     3.10239  3.10239  0.00000 -0.20479
      13     H     0.42480  0.42480  0.00000  0.15039
      14     H     0.42527  0.42527  0.00000  0.14946

   Total alpha = 25.00000, Total beta = 25.00000, Total charge = -0.00000

*** Psi4 exiting successfully. Buy a developer a beer!
