                              Psi4 1.0.54 Driver

  ==> Input File <==

--------------------------------------------------------------------------
set {
	reference rhf
	basis cc-pvtz
}

set_num_threads( 4 )
memory 2 gb

molecule MOL {
0 1

H	 1.166964	 -1.062386	 0.758429
O	 1.324748	 -0.612467	 -0.052206
C	 0.706474	 0.636793	 -0.025501
C	 0.873260	 1.444565	 -1.281414
H	 1.142524	 1.177075	 0.806520
H	 -0.355722	 0.539255	 0.191127
C	 1.617322	 1.115924	 -2.314212
H	 0.319465	 2.368849	 -1.297547
H	 2.196605	 0.212488	 -2.328613
H	 1.680064	 1.751570	 -3.176811

	symmetry c1
}
set optking {
	frozen_dihedral = ("
		5 3 2 1
	")
}

ee,wfn = optimize('scf', return_wfn=True)
oeprop( wfn, 'DIPOLE', 'QUADRUPOLE', 'MULLIKEN_CHARGES')
f=open( 'psi4out.xyz', 'w' )
f.write( "10  " )
f.write( str(ee) + "\n" )
f.write( MOL.save_string_xyz() )
f.close()
--------------------------------------------------------------------------

    Molecular point group: c1
  Charge       = 0
  Multiplicity = 1
  Basis Set: CC-PVTZ
  Basis Set:
  @DF-RHF Final Energy:  -191.99606368820872
    Total Energy =                       -191.9960636882087783
    Molecular point group: c1
  Basis Set: CC-PVTZ
  Basis Set:
  Basis Set: CC-PVTZ
  Basis Set:
  @DF-RHF Final Energy:  -191.48247021203383
    Total Energy =                       -191.4824702120338884
  Basis Set: CC-PVTZ
  Basis Set:
  Basis Set: CC-PVTZ
  Basis Set:
  @DF-RHF Final Energy:  -191.64946579826432
    Total Energy =                       -191.6494657982642877
  Basis Set: CC-PVTZ
  Basis Set:
  Basis Set: CC-PVTZ
  Basis Set:
  @DF-RHF Final Energy:  -191.91704292046563
    Total Energy =                       -191.9170429204655761
  Basis Set: CC-PVTZ
  Basis Set:
  @DF-RHF Final Energy:  -191.98362327331631
    Total Energy =                       -191.9836232733163399
  @DF-RHF Final Energy:  -191.99734804863033
    Total Energy =                       -191.9973480486303572
  Basis Set: CC-PVTZ
  Basis Set:
  @DF-RHF Final Energy:  -191.99765699377667
    Total Energy =                       -191.9976569937766158
  Basis Set: CC-PVTZ
  Basis Set:
  Basis Set: CC-PVTZ
  Basis Set:
  @DF-RHF Final Energy:  -191.99781540672330
    Total Energy =                       -191.9978154067233618
  Basis Set: CC-PVTZ
  Basis Set:
  Basis Set: CC-PVTZ
  Basis Set:
  @DF-RHF Final Energy:  -191.99781859969698
    Total Energy =                       -191.9978185996968705
  Basis Set: CC-PVTZ
  Basis Set:
  Charge       = 0
  Multiplicity = 1
  Basis Set: CC-PVTZ
  Basis Set:

    Orbital Energies (a.u.)
    -----------------------

    Doubly Occupied:

       1A    -20.553967     2A    -11.278041     3A    -11.223779
       4A    -11.207709     5A     -1.374287     6A     -1.058575
       7A     -0.925846     8A     -0.756323     9A     -0.714383
      10A     -0.639021    11A     -0.619593    12A     -0.594778
      13A     -0.518046    14A     -0.487219    15A     -0.459185
      16A     -0.360279

  @DF-RHF Final Energy:  -191.99781901443964

   => Energetics <=

    Nuclear Repulsion Energy =            119.6766764015190034
    One-Electron Energy =                -497.8069255176568504
    Two-Electron Energy =                 186.1324301016979916
    DFT Exchange-Correlation Energy =       0.0000000000000000
    Empirical Dispersion Energy =           0.0000000000000000
    PCM Polarization Energy =               0.0000000000000000
    EFP Energy =                            0.0000000000000000
    Total Energy =                       -191.9978190144398695
    Molecular point group: c1
  Basis Set: CC-PVTZ
  Basis Set:

  -Total Gradient:
     Atom            X                  Y                   Z
    ------   -----------------  -----------------  -----------------
       1       -0.000021780255    -0.000024412974    -0.000024615319
       2        0.000032910207     0.000035028725     0.000033408668
       3       -0.000036649004    -0.000020701688     0.000035138523
       4       -0.000023158768    -0.000008070727    -0.000041618701
       5        0.000021231362     0.000007763119     0.000018218741
       6       -0.000001019493     0.000001470995    -0.000017666538
       7       -0.000004946783    -0.000031787320    -0.000058788652
       8        0.000000377642     0.000018024119     0.000015880986
       9        0.000016284646     0.000007850828     0.000021701076
      10        0.000016750445     0.000014834922     0.000018341217

  **** Optimization is complete! (in 10 steps) ****
    Final optimized geometry and variables:
    Molecular point group: c1

    Geometry (in Angstrom), charge = 0, multiplicity = 1:

    H           -0.600338975398    -1.803677920588     1.231172974609
    O           -0.102810357373    -1.215747081376     0.694106861396
    C           -0.845398491430    -0.060848662759     0.440380953016
    C           -0.078447765323     0.885693845182    -0.430364126131
    H           -1.098839614286     0.447700485080     1.369342291681
    H           -1.784530665323    -0.305463887445    -0.053560846693
    C            1.128570057699     0.683044001530    -0.907189949083
    H           -0.600288257680     1.799572353458    -0.659775307611
    H            1.671749104667    -0.216449746659    -0.694722194362
    H            1.606312161840     1.418928956193    -1.525949843293

  Mulliken Charges: (a.u.)
   Center  Symbol    Alpha    Beta     Spin     Total
       1     H     0.39586  0.39586  0.00000  0.20829
       2     O     4.18975  4.18975  0.00000 -0.37949
       3     C     2.93750  2.93750  0.00000  0.12500
       4     C     3.08250  3.08250  0.00000 -0.16499
       5     H     0.47480  0.47480  0.00000  0.05041
       6     H     0.47486  0.47486  0.00000  0.05029
       7     C     3.16982  3.16982  0.00000 -0.33965
       8     H     0.42401  0.42401  0.00000  0.15197
       9     H     0.42054  0.42054  0.00000  0.15893
      10     H     0.43037  0.43037  0.00000  0.13925

   Total alpha = 16.00000, Total beta = 16.00000, Total charge = -0.00000

*** Psi4 exiting successfully. Buy a developer a beer!
