                              Psi4 1.0.54 Driver

  ==> Input File <==

--------------------------------------------------------------------------
set {
	reference rhf
	basis cc-pvtz
}

set_num_threads( 4 )
memory 2 gb

molecule MOL {
0 1

H	 -0.000342	 -0.223902	 -3.352295
C	 -0.027146	 0.371068	 -2.446756
C	 0.024493	 -0.518541	 -1.216015
H	 -0.932586	 0.964979	 -2.449855
H	 0.819708	 1.049865	 -2.473332
N	 -0.042516	 0.263377	 0.000000
H	 -0.822211	 -1.197105	 -1.225584
H	 0.921114	 -1.142847	 -1.255206
C	 0.024493	 -0.518541	 1.216015
H	 0.682568	 0.950412	 0.000000
C	 -0.525568	 0.257284	 2.401057
H	 -0.564166	 -1.418193	 1.069200
H	 1.042905	 -0.848538	 1.437740
H	 -1.551104	 0.553714	 2.219488
H	 -0.493427	 -0.343975	 3.302257
H	 0.056292	 1.155529	 2.583344

	symmetry c1
}
set optking {
	frozen_dihedral = ("
		12 9 6 3
	")
}

ee,wfn = optimize('scf', return_wfn=True)
oeprop( wfn, 'DIPOLE', 'QUADRUPOLE', 'MULLIKEN_CHARGES')
f=open( 'psi4out.xyz', 'w' )
f.write( "16  " )
f.write( str(ee) + "\n" )
f.write( MOL.save_string_xyz() )
f.close()
--------------------------------------------------------------------------

    Molecular point group: c1
  Charge       = 0
  Multiplicity = 1
  Basis Set: CC-PVTZ
  Basis Set:
  @DF-RHF Final Energy:  -212.39333233996445
    Total Energy =                       -212.3933323399645587
    Molecular point group: c1
  Basis Set: CC-PVTZ
  Basis Set:
  Basis Set: CC-PVTZ
  Basis Set:
  @DF-RHF Final Energy:  -212.39346872863493
    Total Energy =                       -212.3934687286350709
  Basis Set: CC-PVTZ
  Basis Set:
  Basis Set: CC-PVTZ
  Basis Set:
  @DF-RHF Final Energy:  -212.39348933267306
    Total Energy =                       -212.3934893326728570
  Basis Set: CC-PVTZ
  Basis Set:
  Charge       = 0
  Multiplicity = 1
  Basis Set: CC-PVTZ
  Basis Set:

    Orbital Energies (a.u.)
    -----------------------

    Doubly Occupied:

       1A    -15.527686     2A    -11.239440     3A    -11.239028
       4A    -11.206695     5A    -11.203747     6A     -1.205826
       7A     -1.028384     8A     -0.963873     9A     -0.833071
      10A     -0.821067    11A     -0.663918    12A     -0.628770
      13A     -0.602287    14A     -0.581065    15A     -0.556252
      16A     -0.522527    17A     -0.507821    18A     -0.489811
      19A     -0.481241    20A     -0.476469    21A     -0.358763

  @DF-RHF Final Energy:  -212.39349053671853

   => Energetics <=

    Nuclear Repulsion Energy =            189.3125628149571469
    One-Electron Energy =                -661.1366245669915997
    Two-Electron Energy =                 259.4305712153160925
    DFT Exchange-Correlation Energy =       0.0000000000000000
    Empirical Dispersion Energy =           0.0000000000000000
    PCM Polarization Energy =               0.0000000000000000
    EFP Energy =                            0.0000000000000000
    Total Energy =                       -212.3934905367183887
    Molecular point group: c1
  Basis Set: CC-PVTZ
  Basis Set:

  -Total Gradient:
     Atom            X                  Y                   Z
    ------   -----------------  -----------------  -----------------
       1        0.000003465949     0.000004755652    -0.000025801034
       2       -0.000018987644     0.000003434657    -0.000007417400
       3       -0.002336873993    -0.000277944737    -0.000081262337
       4        0.000006198839     0.000000557549     0.000002512169
       5       -0.000006733296    -0.000011931676     0.000006526672
       6        0.003932903052     0.000083789249    -0.000241585227
       7        0.000011462293     0.000041840800     0.000032540875
       8       -0.000014664649     0.000019431534     0.000021490185
       9       -0.004081488194     0.001601870597     0.001437599616
      10       -0.000000779990    -0.000017308567    -0.000008942214
      11        0.000023272969     0.000016376489    -0.000034825057
      12        0.002482383764    -0.001441211101    -0.001050198699
      13       -0.000010865557     0.000010571815    -0.000006119813
      14        0.000009054799    -0.000004185061    -0.000011101119
      15        0.000006317853    -0.000015243923    -0.000012380029
      16       -0.000004666195    -0.000014803277    -0.000021036586

  **** Optimization is complete! (in 4 steps) ****
    Final optimized geometry and variables:
    Molecular point group: c1

    Geometry (in Angstrom), charge = 0, multiplicity = 1:

    H            0.110223447006    -0.168892240549    -3.348689578768
    C            0.086272491853     0.414253270624    -2.435428002493
    C            0.124734176290    -0.492121993193    -1.216443476284
    H           -0.813400042037     1.017026440799    -2.433236302841
    H            0.939999491677     1.084696781494    -2.450424412267
    N            0.050580387857     0.275872352922     0.007376692717
    H           -0.725694283539    -1.164816474070    -1.240881089064
    H            1.018814594342    -1.120233581290    -1.261372568460
    C            0.114622955236    -0.503925471294     1.226811859239
    H            0.747307951008     0.990159372996     0.014043852519
    C           -0.410985771961     0.275681916882     2.419932146204
    H           -0.469892259659    -1.405036325008     1.078526622258
    H            1.130246747247    -0.848588922574     1.437524391056
    H           -1.441258732714     0.567224235588     2.259680572468
    H           -0.352889258808    -0.318285703614     3.325458883279
    H            0.170081758153     1.178505755370     2.577927223949

  Mulliken Charges: (a.u.)
   Center  Symbol    Alpha    Beta     Spin     Total
       1     H     0.45391  0.45391  0.00000  0.09218
       2     C     3.14299  3.14299  0.00000 -0.28598
       3     C     3.02055  3.02055  0.00000 -0.04110
       4     H     0.44959  0.44959  0.00000  0.10081
       5     H     0.45934  0.45934  0.00000  0.08132
       6     N     3.64023  3.64023  0.00000 -0.28045
       7     H     0.45870  0.45870  0.00000  0.08260
       8     H     0.47509  0.47509  0.00000  0.04982
       9     C     3.02808  3.02808  0.00000 -0.05616
      10     H     0.44243  0.44243  0.00000  0.11513
      11     C     3.13614  3.13614  0.00000 -0.27228
      12     H     0.45771  0.45771  0.00000  0.08458
      13     H     0.46850  0.46850  0.00000  0.06301
      14     H     0.45150  0.45150  0.00000  0.09699
      15     H     0.45667  0.45667  0.00000  0.08667
      16     H     0.45857  0.45857  0.00000  0.08286

   Total alpha = 21.00000, Total beta = 21.00000, Total charge =  0.00000

*** Psi4 exiting successfully. Buy a developer a beer!
