  ==> Input File <==

--------------------------------------------------------------------------
set {
	reference rhf
	basis 6-31G*
}

set_num_threads( 4 )
memory 2 gb

molecule MOL {
0 1

O	 -0.682937	 1.318834	 -0.186099
C	 -0.860635	 0.152188	 -0.042321
C	 -2.173363	 -0.477127	 0.338347
O	 0.083258	 -0.765189	 -0.202595
H	 -2.477673	 -1.180929	 -0.427595
H	 -2.923125	 0.290956	 0.455536
H	 -2.058825	 -1.029004	 1.264191
C	 1.391937	 -0.334737	 -0.569838
C	 1.424388	 1.151992	 -0.871884
H	 1.732103	 -0.914244	 -1.414587
H	 2.005065	 -0.569024	 0.288464
H	 2.444706	 1.463535	 -1.073434
H	 0.820655	 1.382502	 -1.740641
H	 1.055172	 1.721284	 -0.025716

	symmetry c1
}
set optking {
	frozen_dihedral = ("
		10 8 4 2
	")
}

ee = optimize('scf')
oeprop('DIPOLE', 'QUADRUPOLE', 'MULLIKEN_CHARGES')
f=open( 'psi4out.xyz', 'w' )
f.write( "14  " )
f.write( str(ee) + "\n" )
f.write( MOL.save_string_xyz() )
f.close()
--------------------------------------------------------------------------

    Molecular point group: c1
  Charge       = 0
  Multiplicity = 1
  Basis Set: 6-31G*
  Basis Set:
  @DF-RHF Final Energy:  -305.82861983367690
    Total Energy =                       -305.8286198336768393
    Molecular point group: c1
  Basis Set: 6-31G*
  Basis Set:
  Basis Set: 6-31G*
  Basis Set:
  @DF-RHF Final Energy:  -305.85568286456510
    Total Energy =                       -305.8556828645653241
  Basis Set: 6-31G*
  Basis Set:
  Basis Set: 6-31G*
  Basis Set:
  @DF-RHF Final Energy:  -305.86144538453402
    Total Energy =                       -305.8614453845339085
  Basis Set: 6-31G*
  Basis Set:
  Basis Set: 6-31G*
  Basis Set:
  @DF-RHF Final Energy:  -305.86008199923538
    Total Energy =                       -305.8600819992353763
  Basis Set: 6-31G*
  Basis Set:
  @DF-RHF Final Energy:  -305.86393041272117
    Total Energy =                       -305.8639304127211744
  @DF-RHF Final Energy:  -305.86409886300044
    Total Energy =                       -305.8640988630002084
  Basis Set: 6-31G*
  Basis Set:
  @DF-RHF Final Energy:  -305.86412171859399
    Total Energy =                       -305.8641217185939922
  Basis Set: 6-31G*
  Basis Set:
  Basis Set: 6-31G*
  Basis Set:
  @DF-RHF Final Energy:  -305.86413494675332
    Total Energy =                       -305.8641349467532109
  Basis Set: 6-31G*
  Basis Set:
  Basis Set: 6-31G*
  Basis Set:
  @DF-RHF Final Energy:  -305.86413615344770
    Total Energy =                       -305.8641361534475891
  Basis Set: 6-31G*
  Basis Set:
  Charge       = 0
  Multiplicity = 1
  Basis Set: 6-31G*
  Basis Set:

    Orbital Energies (a.u.)
    -----------------------

    Doubly Occupied:

       1A    -20.598963     2A    -20.539854     3A    -11.376187
       4A    -11.292387     5A    -11.230078     6A    -11.215942
       7A     -1.460231     8A     -1.361915     9A     -1.055634
      10A     -0.995808    11A     -0.893486    12A     -0.747697
      13A     -0.686647    14A     -0.681112    15A     -0.670682
      16A     -0.610124    17A     -0.586822    18A     -0.568320
      19A     -0.547470    20A     -0.535151    21A     -0.515091
      22A     -0.494717    23A     -0.441814    24A     -0.429760

  @DF-RHF Final Energy:  -305.86413643067692

   => Energetics <=

    Nuclear Repulsion Energy =            248.6557104924550856
    One-Electron Energy =                -909.9679088055449938
    Two-Electron Energy =                 355.4480618824129579
    DFT Exchange-Correlation Energy =       0.0000000000000000
    Empirical Dispersion Energy =           0.0000000000000000
    PCM Polarization Energy =               0.0000000000000000
    EFP Energy =                            0.0000000000000000
    Total Energy =                       -305.8641364306769219
    Molecular point group: c1
  Basis Set: 6-31G*
  Basis Set:

  -Total Gradient:
     Atom            X                  Y                   Z
    ------   -----------------  -----------------  -----------------
       1       -0.000008139010    -0.000009704348     0.000006343689
       2       -0.000494886806    -0.000182850953    -0.001767332007
       3       -0.000002956323     0.000000346994    -0.000043359008
       4        0.000590051725     0.000508358261     0.002551394846
       5        0.000003109099    -0.000004797907     0.000010193631
       6        0.000006818815     0.000008473392     0.000001209211
       7        0.000008588913     0.000004630054     0.000014363973
       8        0.000596861995    -0.001587264622     0.000462175337
       9        0.000025382748     0.000005109783     0.000025083066
      10       -0.000702292145     0.001246487164    -0.001218509462
      11       -0.000010924596    -0.000006646447    -0.000004413682
      12       -0.000008531285     0.000004227969    -0.000002074239
      13       -0.000010247504     0.000013545883    -0.000011987843
      14        0.000007164376     0.000000084775    -0.000023087512

  **** Optimization is complete! (in 10 steps) ****
    Final optimized geometry and variables:
    Molecular point group: c1

    Geometry (in Angstrom), charge = 0, multiplicity = 1:

    O           -0.782182971144     1.161009900233     0.183843701589
    C           -0.810489013140    -0.024600211443     0.246237542068
    C           -2.051404869514    -0.824200823464     0.551311748998
    O            0.221421600124    -0.835707882026     0.073876051018
    H           -2.262124151030    -1.501578225917    -0.268119705239
    H           -2.884501309015    -0.153893014422     0.701747090842
    H           -1.891676148420    -1.424058188807     1.439744759262
    C            1.552171280306    -0.466886860913    -0.303321926981
    C            1.830518022099     0.966248519233    -0.732022760527
    H            1.787312318580    -1.131412721605    -1.123622952942
    H            2.178449193664    -0.734019495461     0.537478496069
    H            2.870648787892     0.999951542490    -1.046296049996
    H            1.213686142339     1.267148658348    -1.567721615980
    H            1.686873216363     1.675797142945     0.067979528700

  Mulliken Charges: (a.u.)
   Center  Symbol    Alpha    Beta     Spin     Total
       1     O     4.28204  4.28204  0.00000 -0.56407
       2     C     2.62052  2.62052  0.00000  0.75896
       3     C     3.27996  3.27996  0.00000 -0.55992
       4     O     4.31663  4.31663  0.00000 -0.63326
       5     H     0.40199  0.40199  0.00000  0.19602
       6     H     0.39824  0.39824  0.00000  0.20352
       7     H     0.40131  0.40131  0.00000  0.19737
       8     C     2.99080  2.99080  0.00000  0.01839
       9     C     3.25198  3.25198  0.00000 -0.50395
      10     H     0.41280  0.41280  0.00000  0.17440
      11     H     0.41342  0.41342  0.00000  0.17317
      12     H     0.42234  0.42234  0.00000  0.15531
      13     H     0.40784  0.40784  0.00000  0.18432
      14     H     0.40013  0.40013  0.00000  0.19974

   Total alpha = 24.00000, Total beta = 24.00000, Total charge =  0.00000
