  ==> Input File <==

--------------------------------------------------------------------------
set {
	reference rhf
	basis 6-31G*
}

set_num_threads( 1 )
memory 2 gb

molecule MOL {
0 1

H	 -2.646374	 -0.642757	 1.268656
C	 -2.083525	 -0.384536	 0.393091
O	 -0.807605	 -0.127164	 0.768327
F	 -2.118945	 -1.383102	 -0.486752
F	 -2.621877	 0.670592	 -0.209486
C	 0.084052	 0.273579	 -0.209957
C	 1.188767	 -0.773883	 -0.260812
Cl	 0.754708	 1.869969	 0.162836
H	 -0.373146	 0.330552	 -1.182324
F	 2.073474	 -0.464223	 -1.184687
F	 0.656199	 -1.937219	 -0.577764
F	 1.805239	 -0.898993	 0.889094

	symmetry c1
}
set optking {
	frozen_dihedral = ("
		10 7 6 9,
		6 3 2 4
	")
}

ee = energy('scf')
oeprop('DIPOLE', 'QUADRUPOLE', 'MULLIKEN_CHARGES')
f=open( 'psi4out.xyz', 'w' )
f.write( "12  " )
f.write( str(ee) + "\n" )
f.write( MOL.save_string_xyz() )
f.close()
--------------------------------------------------------------------------

    Molecular point group: c1

    Geometry (in Angstrom), charge = 0, multiplicity = 1:

       Center              X                  Y                   Z               Mass
    ------------   -----------------  -----------------  -----------------  -----------------
           H         -2.628926284671    -0.513304390807     1.337587431675     1.007825032070
           C         -2.066077284671    -0.255083390807     0.462022431675    12.000000000000
           O         -0.790157284671     0.002288609193     0.837258431675    15.994914619560
           F         -2.101497284671    -1.253649390807    -0.417820568325    18.998403224000
           F         -2.604429284671     0.800044609193    -0.140554568325    18.998403224000
           C          0.101499715329     0.403031609193    -0.141025568325    12.000000000000
           C          1.206214715329    -0.644430390807    -0.191880568325    12.000000000000
          CL          0.772155715329     1.999421609193     0.231767431675    34.968852682000
           H         -0.355698284671     0.460004609193    -1.113392568325     1.007825032070
           F          2.090921715329    -0.334770390807    -1.115755568325    18.998403224000
           F          0.673646715329    -1.807766390807    -0.508832568325    18.998403224000
           F          1.822686715329    -0.769540390807     0.958025431675    18.998403224000

  Charge       = 0
  Multiplicity = 1
  Basis Set: 6-31G*
  Basis Set:

    Orbital Energies (a.u.)
    -----------------------

    Doubly Occupied:

       1A   -104.846046     2A    -26.358719     3A    -26.357353
       4A    -26.356776     5A    -26.347776     6A    -26.344557
       7A    -20.649077     8A    -11.525563     9A    -11.489587
      10A    -11.400642    11A    -10.580610    12A     -8.049976
      13A     -8.046428    14A     -8.046332    15A     -1.759973
      16A     -1.717836    17A     -1.656539    18A     -1.655064
      19A     -1.638334    20A     -1.485881    21A     -1.180776
      22A     -1.050409    23A     -0.987232    24A     -0.918771
      25A     -0.858182    26A     -0.852043    27A     -0.843907
      28A     -0.827136    29A     -0.811421    30A     -0.789268
      31A     -0.727560    32A     -0.724060    33A     -0.705703
      34A     -0.700410    35A     -0.675816    36A     -0.674134
      37A     -0.657514    38A     -0.655588    39A     -0.646195
      40A     -0.634881    41A     -0.596595    42A     -0.579970
      43A     -0.524865    44A     -0.478931    45A     -0.469713

  @DF-RHF Final Energy: -1146.31374233502265

   => Energetics <=

    Nuclear Repulsion Energy =            740.5046323964676276
    One-Electron Energy =               -3063.8681815058675966
    Two-Electron Energy =                1177.0498067743765205
    DFT Exchange-Correlation Energy =       0.0000000000000000
    Empirical Dispersion Energy =           0.0000000000000000
    PCM Polarization Energy =               0.0000000000000000
    EFP Energy =                            0.0000000000000000
    Total Energy =                      -1146.3137423350235622

  Mulliken Charges: (a.u.)
   Center  Symbol    Alpha    Beta     Spin     Total
       1     H     0.40103  0.40103  0.00000  0.19795
       2     C     2.56583  2.56583  0.00000  0.86835
       3     O     4.29772  4.29772  0.00000 -0.59544
       4     F     4.68620  4.68620  0.00000 -0.37241
       5     F     4.68526  4.68526  0.00000 -0.37052
       6     C     3.04936  3.04936  0.00000 -0.09872
       7     C     2.43365  2.43365  0.00000  1.13270
       8    CL     8.49642  8.49642  0.00000  0.00716
       9     H     0.36618  0.36618  0.00000  0.26764
      10     F     4.67401  4.67401  0.00000 -0.34803
      11     F     4.67592  4.67592  0.00000 -0.35184
      12     F     4.66842  4.66842  0.00000 -0.33684

   Total alpha = 45.00000, Total beta = 45.00000, Total charge =  0.00000
