  ==> Input File <==

--------------------------------------------------------------------------
set {
	reference rhf
	basis 6-31G*
}

set_num_threads( 4 )
memory 2 gb

molecule MOL {
0 1

H	 -3.940005	 -1.240276	 0.954456
C	 -2.872851	 -1.109999	 0.985966
C	 -2.248060	 -0.811609	 2.187526
C	 -2.126776	 -1.240957	 -0.174705
H	 -2.827847	 -0.710320	 3.086945
C	 -0.875874	 -0.644243	 2.227249
H	 -2.612841	 -1.472290	 -1.105206
C	 -0.753076	 -1.073853	 -0.137330
H	 -0.375525	 -0.413066	 3.148053
C	 -0.123896	 -0.774744	 1.065346
H	 -0.171811	 -1.174280	 -1.033079
C	 1.350980	 -0.584761	 1.161810
O	 1.970282	 -0.730723	 0.000018
O	 1.924163	 -0.327944	 2.173920
C	 3.377318	 -0.566646	 -0.000065
H	 3.695437	 -0.028981	 -0.881264
H	 3.789299	 -1.563704	 0.000236
H	 3.695516	 -0.028316	 0.880770

	symmetry c1
}
set optking {
	frozen_dihedral = ("
		12 13 15 16
	")
}

ee = optimize('scf')
oeprop('DIPOLE', 'QUADRUPOLE', 'MULLIKEN_CHARGES')
f=open( 'psi4out.xyz', 'w' )
f.write( "18  " )
f.write( str(ee) + "\n" )
f.write( MOL.save_string_xyz() )
f.close()
--------------------------------------------------------------------------

    Molecular point group: c1
  Charge       = 0
  Multiplicity = 1
  Basis Set: 6-31G*
  Basis Set:
  @DF-RHF Final Energy:  -457.34764282161643
    Total Energy =                       -457.3476428216165459
    Molecular point group: c1
  Basis Set: 6-31G*
  Basis Set:
  Basis Set: 6-31G*
  Basis Set:
  @DF-RHF Final Energy:  -457.34839590902652
    Total Energy =                       -457.3483959090267490
  Basis Set: 6-31G*
  Basis Set:
  Basis Set: 6-31G*
  Basis Set:
  @DF-RHF Final Energy:  -457.34863064625665
    Total Energy =                       -457.3486306462567654
  Basis Set: 6-31G*
  Basis Set:
  Basis Set: 6-31G*
  Basis Set:
  @DF-RHF Final Energy:  -457.34881482588582
    Total Energy =                       -457.3488148258855972
  Basis Set: 6-31G*
  Basis Set:
  Basis Set: 6-31G*
  Basis Set:
  @DF-RHF Final Energy:  -457.34893014086350
    Total Energy =                       -457.3489301408635583
  Basis Set: 6-31G*
  Basis Set:
  Basis Set: 6-31G*
  Basis Set:
  @DF-RHF Final Energy:  -457.34892990572587
    Total Energy =                       -457.3489299057257540
  Basis Set: 6-31G*
  Basis Set:
  Charge       = 0
  Multiplicity = 1
  Basis Set: 6-31G*
  Basis Set:

    Orbital Energies (a.u.)
    -----------------------

    Doubly Occupied:

       1A    -20.606868     2A    -20.543773     3A    -11.379115
       4A    -11.281824     5A    -11.245108     6A    -11.244937
       7A    -11.243666     8A    -11.241258     9A    -11.237067
      10A    -11.236304    11A     -1.470589    12A     -1.364363
      13A     -1.164820    14A     -1.047825    15A     -1.024390
      16A     -0.979110    17A     -0.859753    18A     -0.833875
      19A     -0.777140    20A     -0.739822    21A     -0.683706
      22A     -0.675762    23A     -0.671521    24A     -0.631134
      25A     -0.623562    26A     -0.597360    27A     -0.584558
      28A     -0.566696    29A     -0.524442    30A     -0.516248
      31A     -0.503749    32A     -0.498225    33A     -0.456477
      34A     -0.444520    35A     -0.344584    36A     -0.340565

  @DF-RHF Final Energy:  -457.34893099254327

   => Energetics <=

    Nuclear Repulsion Energy =            492.6542722141055037
    One-Electron Energy =               -1599.6369687378714843
    Two-Electron Energy =                 649.6337655312223660
    DFT Exchange-Correlation Energy =       0.0000000000000000
    Empirical Dispersion Energy =           0.0000000000000000
    PCM Polarization Energy =               0.0000000000000000
    EFP Energy =                            0.0000000000000000
    Total Energy =                       -457.3489309925436146
    Molecular point group: c1
  Basis Set: 6-31G*
  Basis Set:

  -Total Gradient:
     Atom            X                  Y                   Z
    ------   -----------------  -----------------  -----------------
       1        0.000000487118    -0.000000826420     0.000000561103
       2       -0.000000535917     0.000000608471     0.000004458421
       3        0.000001025142     0.000003906978     0.000000042364
       4        0.000009022766     0.000002567765    -0.000001659308
       5        0.000001850552     0.000001380102     0.000000608437
       6        0.000006947020    -0.000006143383     0.000000786523
       7        0.000003311946     0.000000544726    -0.000000571875
       8        0.000008453508    -0.000005149840     0.000010193092
       9        0.000000503472     0.000001044873     0.000003639151
      10        0.000007528783     0.000004863983    -0.000011786251
      11        0.000006751446     0.000001426438    -0.000007623214
      12       -0.000109051140     0.001164902518    -0.000247171966
      13        0.000180351370    -0.001437342567     0.000454974164
      14       -0.000026308627     0.000006026213     0.000031991374
      15        0.000053516738    -0.000919428764    -0.000894130883
      16       -0.000125356963     0.001180204511     0.000648128187
      17       -0.000005876318    -0.000005364918     0.000000969674
      18       -0.000012620902     0.000006779313     0.000006591008

  **** Optimization is complete! (in 7 steps) ****
    Final optimized geometry and variables:
    Molecular point group: c1

    Geometry (in Angstrom), charge = 0, multiplicity = 1:

    H           -4.030280963128    -0.448853259832    -0.017309488622
    C           -2.962925097528    -0.323641510555     0.025048766670
    C           -2.348638735844    -0.030078678204     1.233202522334
    C           -2.205913419931    -0.456434117881    -1.128253377174
    H           -2.936739877712     0.072531179527     2.127107101554
    C           -0.976182715572     0.130540142126     1.286830130847
    H           -2.683732967135    -0.684150943376    -2.063896985372
    C           -0.831866526503    -0.295867244482    -1.076924101137
    H           -0.484225022677     0.357801949491     2.213022407507
    C           -0.213035136975    -0.001408899729     0.132297265828
    H           -0.242521218232    -0.398113912990    -1.967022715731
    C            1.262274330470     0.182326753286     0.245299464194
    O            1.886164230086     0.028405509814    -0.913685297516
    O            1.819249526857     0.438204758035     1.266465056996
    C            3.292259630733     0.203245152568    -0.962949175096
    H            3.508121935086     0.728624827453    -1.881293358807
    H            3.769523832263    -0.767119625054    -0.969783720472
    H            3.636212641516     0.774563143783    -0.117180746718

  Mulliken Charges: (a.u.)
   Center  Symbol    Alpha    Beta     Spin     Total
       1     H     0.39548  0.39548  0.00000  0.20905
       2     C     3.09001  3.09001  0.00000 -0.18001
       3     C     3.10704  3.10704  0.00000 -0.21408
       4     C     3.10710  3.10710  0.00000 -0.21419
       5     H     0.39547  0.39547  0.00000  0.20905
       6     C     3.08654  3.08654  0.00000 -0.17308
       7     H     0.39639  0.39639  0.00000  0.20723
       8     C     3.08696  3.08696  0.00000 -0.17391
       9     H     0.37595  0.37595  0.00000  0.24811
      10     C     3.07775  3.07775  0.00000 -0.15550
      11     H     0.38060  0.38060  0.00000  0.23880
      12     C     2.57946  2.57946  0.00000  0.84108
      13     O     4.31634  4.31634  0.00000 -0.63267
      14     O     4.29137  4.29137  0.00000 -0.58273
      15     C     3.09697  3.09697  0.00000 -0.19394
      16     H     0.41004  0.41004  0.00000  0.17992
      17     H     0.41183  0.41183  0.00000  0.17633
      18     H     0.39472  0.39472  0.00000  0.21056

   Total alpha = 36.00000, Total beta = 36.00000, Total charge = -0.00000
