  ==> Input File <==

--------------------------------------------------------------------------
set {
	reference rhf
	basis cc-pvtz
}

set_num_threads( 4 )
memory 2 gb

molecule MOL {
0 1

H	 -1.062082	 1.940313	 1.457559
C	 -0.873759	 1.088369	 0.838963
C	 -1.907919	 0.480514	 0.057823
C	 0.347704	 0.553141	 0.771184
H	 -2.901341	 0.886986	 0.090228
C	 -1.645478	 -0.583766	 -0.707035
H	 1.173236	 0.952081	 1.326599
N	 0.640204	 -0.530428	 -0.000115
H	 -2.393442	 -1.063685	 -1.303850
C	 -0.312516	 -1.164562	 -0.778593
C	 2.006991	 -1.033007	 -0.000020
O	 -0.037658	 -2.119251	 -1.453326
H	 2.182444	 -1.636914	 -0.880881
H	 2.678769	 -0.195442	 -0.002236
H	 2.183828	 -1.633244	 0.883082

	symmetry c1
}
set optking {
	frozen_dihedral = ("
		10 8 11 13
	")
}

ee = optimize('scf')
oeprop('DIPOLE', 'QUADRUPOLE', 'MULLIKEN_CHARGES')
f=open( 'psi4out.xyz', 'w' )
f.write( "15  " )
f.write( str(ee) + "\n" )
f.write( MOL.save_string_xyz() )
f.close()
--------------------------------------------------------------------------

    Molecular point group: c1
  Charge       = 0
  Multiplicity = 1
  Basis Set: CC-PVTZ
  Basis Set:
  @DF-RHF Final Energy:  -360.72248619626555
    Total Energy =                       -360.7224861962654359
    Molecular point group: c1
  Basis Set: CC-PVTZ
  Basis Set:
  Basis Set: CC-PVTZ
  Basis Set:
  @DF-RHF Final Energy:  -360.72270792109589
    Total Energy =                       -360.7227079210962302
  Basis Set: CC-PVTZ
  Basis Set:
  Basis Set: CC-PVTZ
  Basis Set:
  @DF-RHF Final Energy:  -360.72271148091977
    Total Energy =                       -360.7227114809196564
  Basis Set: CC-PVTZ
  Basis Set:
  Basis Set: CC-PVTZ
  Basis Set:
  @DF-RHF Final Energy:  -360.72273614365218
    Total Energy =                       -360.7227361436523552
  Basis Set: CC-PVTZ
  Basis Set:
  Charge       = 0
  Multiplicity = 1
  Basis Set: CC-PVTZ
  Basis Set:

    Orbital Energies (a.u.)
    -----------------------

    Doubly Occupied:

       1A    -20.501805     2A    -15.616770     3A    -11.339162
       4A    -11.293470     5A    -11.264032     6A    -11.258185
       7A    -11.230426     8A    -11.228250     9A     -1.390699
      10A     -1.285786    11A     -1.118801    12A     -1.028935
      13A     -0.972389    14A     -0.875910    15A     -0.838655
      16A     -0.719213    17A     -0.702865    18A     -0.663543
      19A     -0.652738    20A     -0.625430    21A     -0.611909
      22A     -0.574623    23A     -0.556724    24A     -0.550569
      25A     -0.529751    26A     -0.483196    27A     -0.420401
      28A     -0.410567    29A     -0.310790

  @DF-RHF Final Energy:  -360.72273760591020

   => Energetics <=

    Nuclear Repulsion Energy =            358.5312001385354961
    One-Electron Energy =               -1200.3966828548238936
    Two-Electron Energy =                 481.1427451103781436
    DFT Exchange-Correlation Energy =       0.0000000000000000
    Empirical Dispersion Energy =           0.0000000000000000
    PCM Polarization Energy =               0.0000000000000000
    EFP Energy =                            0.0000000000000000
    Total Energy =                       -360.7227376059102539
    Molecular point group: c1
  Basis Set: CC-PVTZ
  Basis Set:

  -Total Gradient:
     Atom            X                  Y                   Z
    ------   -----------------  -----------------  -----------------
       1       -0.000002672247    -0.000005546805     0.000003271216
       2        0.000037045735    -0.000026001458     0.000011423867
       3       -0.000030436613    -0.000009405153    -0.000037381121
       4       -0.000033278384     0.000070759014    -0.000024070350
       5       -0.000004522467     0.000000166750     0.000003718076
       6       -0.000037006906     0.000033417309     0.000022020847
       7        0.000012445917    -0.000019638341     0.000002353584
       8       -0.000222579729    -0.000646866736     0.000648480810
       9        0.000003421344    -0.000001163235     0.000003987712
      10        0.000129680450     0.000346234226    -0.000365476277
      11        0.000297775310     0.000820874418    -0.000520984090
      12        0.000046660748     0.000023162684     0.000017811896
      13       -0.000137715296    -0.000556721381     0.000219556371
      14       -0.000051386257    -0.000048131806     0.000000669494
      15       -0.000007431605     0.000018860510     0.000014617964

  **** Optimization is complete! (in 5 steps) ****
    Final optimized geometry and variables:
    Molecular point group: c1

    Geometry (in Angstrom), charge = 0, multiplicity = 1:

    H           -0.904919601113     2.392763869362     1.640648511030
    C           -0.712274307513     1.543628012066     1.019523662899
    C           -1.742090208185     0.936369548228     0.232440329002
    C            0.512757870111     1.015846321974     0.950179021618
    H           -2.736539447580     1.340516026116     0.262885384987
    C           -1.474428208087    -0.124128119836    -0.536134710318
    H            1.335194460040     1.417823802295     1.507520191705
    N            0.811057171497    -0.060948690792     0.172362683453
    H           -2.219206329091    -0.604704029965    -1.136528098232
    C           -0.141286869623    -0.704803842761    -0.597981389404
    C            2.173135627096    -0.575155094613     0.172136433373
    O            0.138598259980    -1.669081016554    -1.256691950565
    H            2.313932973994    -1.182150612166    -0.703268420282
    H            2.870679815378     0.250182461757     0.162592607310
    H            2.353357449614    -1.184252268085     1.049483026208

  Mulliken Charges: (a.u.)
   Center  Symbol    Alpha    Beta     Spin     Total
       1     H     0.41396  0.41396  0.00000  0.17208
       2     C     3.10312  3.10312  0.00000 -0.20624
       3     C     3.06165  3.06165  0.00000 -0.12331
       4     C     3.03308  3.03308  0.00000 -0.06616
       5     H     0.41837  0.41837  0.00000  0.16326
       6     C     3.11702  3.11702  0.00000 -0.23405
       7     H     0.42127  0.42127  0.00000  0.15745
       8     N     3.51180  3.51180  0.00000 -0.02360
       9     H     0.40895  0.40895  0.00000  0.18210
      10     C     2.84529  2.84529  0.00000  0.30942
      11     C     3.10453  3.10453  0.00000 -0.20906
      12     O     4.23646  4.23646  0.00000 -0.47291
      13     H     0.42364  0.42364  0.00000  0.15272
      14     H     0.45367  0.45367  0.00000  0.09266
      15     H     0.44718  0.44718  0.00000  0.10565

   Total alpha = 29.00000, Total beta = 29.00000, Total charge = -0.00000
