  ==> Input File <==

--------------------------------------------------------------------------
set {
	reference rhf
	basis 6-31G*
}

set_num_threads( 4 )
memory 2 gb

molecule MOL {
0 1

H	 2.652209	 0.763231	 0.000000
O	 2.263154	 -0.100023	 0.000000
C	 0.912879	 -0.015685	 0.000000
C	 0.313002	 0.639338	 -1.067555
C	 0.134656	 -0.552744	 1.012433
H	 0.934627	 1.048567	 -1.842102
C	 -1.063056	 0.751079	 -1.112142
H	 0.600733	 -1.060718	 1.840235
C	 -1.246255	 -0.433205	 0.954888
H	 -1.522828	 1.259278	 -1.941014
C	 -1.854047	 0.216865	 -0.103250
H	 -1.843162	 -0.852955	 1.744952
H	 -2.923991	 0.307732	 -0.144805

	symmetry c1
}
set optking {
	frozen_dihedral = ("
		4 3 2 1
	")
}

ee = optimize('scf')
oeprop('DIPOLE', 'QUADRUPOLE', 'MULLIKEN_CHARGES')
f=open( 'psi4out.xyz', 'w' )
f.write( "13  " )
f.write( str(ee) + "\n" )
f.write( MOL.save_string_xyz() )
f.close()
--------------------------------------------------------------------------

    Molecular point group: c1
  Charge       = 0
  Multiplicity = 1
  Basis Set: 6-31G*
  Basis Set:
  @DF-RHF Final Energy:  -305.55297067726309
    Total Energy =                       -305.5529706772630902
    Molecular point group: c1
  Basis Set: 6-31G*
  Basis Set:
  Basis Set: 6-31G*
  Basis Set:
  @DF-RHF Final Energy:  -305.55432083552893
    Total Energy =                       -305.5543208355288698
  Basis Set: 6-31G*
  Basis Set:
  Basis Set: 6-31G*
  Basis Set:
  @DF-RHF Final Energy:  -305.55441053870550
    Total Energy =                       -305.5544105387053833
  Basis Set: 6-31G*
  Basis Set:
  Basis Set: 6-31G*
  Basis Set:
  @DF-RHF Final Energy:  -305.55442048827246
    Total Energy =                       -305.5544204882723420
  Basis Set: 6-31G*
  Basis Set:
  Charge       = 0
  Multiplicity = 1
  Basis Set: 6-31G*
  Basis Set:

    Orbital Energies (a.u.)
    -----------------------

    Doubly Occupied:

       1A    -20.579907     2A    -11.290912     3A    -11.235436
       4A    -11.234276     5A    -11.227748     6A    -11.226219
       7A    -11.224601     8A     -1.395607     9A     -1.147465
      10A     -1.018035    11A     -1.003640    12A     -0.837978
      13A     -0.822739    14A     -0.732892    15A     -0.680842
      16A     -0.646272    17A     -0.623773    18A     -0.592157
      19A     -0.588427    20A     -0.528590    21A     -0.513414
      22A     -0.491687    23A     -0.470172    24A     -0.336843
      25A     -0.319897

  @DF-RHF Final Energy:  -305.55442245699356

   => Energetics <=

    Nuclear Repulsion Energy =            272.7566126928622339
    One-Electron Energy =                -955.0830078290578058
    Two-Electron Energy =                 376.7719726792020083
    DFT Exchange-Correlation Energy =       0.0000000000000000
    Empirical Dispersion Energy =           0.0000000000000000
    PCM Polarization Energy =               0.0000000000000000
    EFP Energy =                            0.0000000000000000
    Total Energy =                       -305.5544224569935068
    Molecular point group: c1
  Basis Set: 6-31G*
  Basis Set:

  -Total Gradient:
     Atom            X                  Y                   Z
    ------   -----------------  -----------------  -----------------
       1       -0.000083712291     0.000073262493     0.002051964109
       2        0.000126806350    -0.000789530118    -0.002932398783
       3       -0.000063101950     0.001939210188     0.001756839101
       4       -0.000055095214    -0.001296235755    -0.000802307412
       5        0.000170451185     0.000006337797    -0.000020410531
       6       -0.000052134518    -0.000008191345     0.000022387669
       7        0.000048704343     0.000040388095     0.000005393992
       8        0.000059158507     0.000004480417    -0.000015102324
       9       -0.000135066536     0.000083426108    -0.000053224606
      10       -0.000051045687    -0.000009578538    -0.000002924059
      11        0.000013474262    -0.000076172821     0.000069422853
      12        0.000022619971     0.000004140916    -0.000017238333
      13       -0.000001058426     0.000028462564    -0.000062401676

  **** Optimization is complete! (in 5 steps) ****
    Final optimized geometry and variables:
    Molecular point group: c1

    Geometry (in Angstrom), charge = 0, multiplicity = 1:

    H            2.690207786628     0.631742884604     0.075122022156
    O            2.263002410854    -0.213823508673     0.087311033258
    C            0.905738709533    -0.061193034982     0.036293761429
    C            0.298880752890     0.576091841774    -1.034591136465
    C            0.137736412161    -0.612425326950     1.047626621734
    H            0.906099591924     0.977462051748    -1.826639284513
    C           -1.081646399188     0.681004979071    -1.077579383260
    H            0.629922616221    -1.111923385089     1.861447790525
    C           -1.242994214167    -0.514124209563     0.990235877159
    H           -1.549961482640     1.179920182215    -1.907307087720
    C           -1.858461428326     0.136077461507    -0.067620040277
    H           -1.837592230419    -0.943538349882     1.776744425037
    H           -2.929888816888     0.213830679566    -0.107287813935

  Mulliken Charges: (a.u.)
   Center  Symbol    Alpha    Beta     Spin     Total
       1     H     0.27208  0.27208  0.00000  0.45583
       2     O     4.38538  4.38538  0.00000 -0.77075
       3     C     2.81339  2.81339  0.00000  0.37322
       4     C     3.12651  3.12651  0.00000 -0.25302
       5     C     3.11796  3.11796  0.00000 -0.23591
       6     H     0.39834  0.39834  0.00000  0.20333
       7     C     3.09517  3.09517  0.00000 -0.19034
       8     H     0.39238  0.39238  0.00000  0.21524
       9     C     3.09552  3.09552  0.00000 -0.19104
      10     H     0.39821  0.39821  0.00000  0.20358
      11     C     3.10728  3.10728  0.00000 -0.21455
      12     H     0.39800  0.39800  0.00000  0.20400
      13     H     0.39979  0.39979  0.00000  0.20042

   Total alpha = 25.00000, Total beta = 25.00000, Total charge = -0.00000
