  ==> Input File <==

--------------------------------------------------------------------------
set {
	reference rhf
	basis 6-31G*
}

set_num_threads( 4 )
memory 2 gb

molecule MOL {
0 1

O	 -2.042549	 -1.228399	 -0.269030
C	 -1.653912	 -0.146171	 0.050137
C	 -0.332303	 0.024011	 0.778412
C	 -2.438579	 1.106236	 -0.272369
C	 0.845713	 -0.001731	 -0.208243
H	 -0.323783	 0.953829	 1.340327
H	 -0.235459	 -0.796807	 1.480410
C	 2.200309	 0.136118	 0.488247
H	 0.733710	 0.800019	 -0.936072
H	 0.811185	 -0.933796	 -0.764304
C	 3.190486	 0.985494	 -0.307566
H	 2.057377	 0.574535	 1.473532
H	 2.621187	 -0.853304	 0.650953
H	 2.812150	 1.992674	 -0.457578
H	 3.378414	 0.553881	 -1.286256
H	 4.142229	 1.063362	 0.208329
H	 -3.277823	 0.863061	 -0.908988
H	 -1.806773	 1.843019	 -0.759671
H	 -2.802853	 1.554979	 0.648059

	symmetry c1
}
set optking {
	frozen_dihedral = ("
		11 8 5 9
	")
}

ee = optimize('scf')
oeprop('DIPOLE', 'QUADRUPOLE', 'MULLIKEN_CHARGES')
f=open( 'psi4out.xyz', 'w' )
f.write( "19  " )
f.write( str(ee) + "\n" )
f.write( MOL.save_string_xyz() )
f.close()
--------------------------------------------------------------------------

    Molecular point group: c1
  Charge       = 0
  Multiplicity = 1
  Basis Set: 6-31G*
  Basis Set:
  @DF-RHF Final Energy:  -309.06092989859445
    Total Energy =                       -309.0609298985943951
    Molecular point group: c1
  Basis Set: 6-31G*
  Basis Set:
  Basis Set: 6-31G*
  Basis Set:
  @DF-RHF Final Energy:  -309.06105727319874
    Total Energy =                       -309.0610572731984576
  Basis Set: 6-31G*
  Basis Set:
  Basis Set: 6-31G*
  Basis Set:
  @DF-RHF Final Energy:  -309.06119760471302
    Total Energy =                       -309.0611976047131293
  Basis Set: 6-31G*
  Basis Set:
  Basis Set: 6-31G*
  Basis Set:
  @DF-RHF Final Energy:  -309.06118665126036
    Total Energy =                       -309.0611866512604706
  Basis Set: 6-31G*
  Basis Set:
  Basis Set: 6-31G*
  Basis Set:
  @DF-RHF Final Energy:  -309.06123255149680
    Total Energy =                       -309.0612325514966869
  Basis Set: 6-31G*
  Basis Set:
  Basis Set: 6-31G*
  Basis Set:
  @DF-RHF Final Energy:  -309.06125494989931
    Total Energy =                       -309.0612549498989097
  Basis Set: 6-31G*
  Basis Set:
  Basis Set: 6-31G*
  Basis Set:
  @DF-RHF Final Energy:  -309.06125723172835
    Total Energy =                       -309.0612572317282911
  Basis Set: 6-31G*
  Basis Set:
  Charge       = 0
  Multiplicity = 1
  Basis Set: 6-31G*
  Basis Set:

    Orbital Energies (a.u.)
    -----------------------

    Doubly Occupied:

       1A    -20.547691     2A    -11.324631     3A    -11.230302
       4A    -11.229728     5A    -11.228330     6A    -11.224575
       7A    -11.215870     8A     -1.393382     9A     -1.089664
      10A     -1.029044    11A     -0.984117    12A     -0.890036
      13A     -0.807382    14A     -0.734238    15A     -0.661980
      16A     -0.642991    17A     -0.621911    18A     -0.612861
      19A     -0.586352    20A     -0.570840    21A     -0.556370
      22A     -0.534944    23A     -0.511156    24A     -0.503985
      25A     -0.482488    26A     -0.470573    27A     -0.466650
      28A     -0.396782

  @DF-RHF Final Energy:  -309.06125782197887

   => Energetics <=

    Nuclear Repulsion Energy =            301.2641439132158894
    One-Electron Energy =               -1015.5530593024096788
    Two-Electron Energy =                 405.2276575672151466
    DFT Exchange-Correlation Energy =       0.0000000000000000
    Empirical Dispersion Energy =           0.0000000000000000
    PCM Polarization Energy =               0.0000000000000000
    EFP Energy =                            0.0000000000000000
    Total Energy =                       -309.0612578219786428
    Molecular point group: c1
  Basis Set: 6-31G*
  Basis Set:

  -Total Gradient:
     Atom            X                  Y                   Z
    ------   -----------------  -----------------  -----------------
       1       -0.000009190168    -0.000005058667    -0.000011160772
       2       -0.000001495203     0.000016046704     0.000004447706
       3        0.000002680947     0.000020554650    -0.000003507418
       4       -0.000000030081    -0.000004984741    -0.000002727660
       5       -0.002447035894     0.004022002986     0.004159838966
       6        0.000024906310    -0.000008304128     0.000013448493
       7       -0.000013587672    -0.000013306876    -0.000014531097
       8        0.001704778954    -0.004068352677    -0.002673245704
       9        0.001663927230    -0.002461127036    -0.002940844094
      10        0.000005980271    -0.000010717059     0.000036289316
      11       -0.000932427093     0.002522464119     0.001441680800
      12       -0.000001359661    -0.000004224066    -0.000008509479
      13        0.000009566072     0.000000428196    -0.000004815624
      14        0.000001186222     0.000004381391     0.000001577877
      15       -0.000008421014    -0.000001860312     0.000000121911
      16       -0.000000303794    -0.000006138668    -0.000000306688
      17       -0.000000084098    -0.000000675560     0.000001303277
      18        0.000000101292    -0.000001352693    -0.000001211782
      19        0.000000807382     0.000000224442     0.000002151973

  **** Optimization is complete! (in 8 steps) ****
    Final optimized geometry and variables:
    Molecular point group: c1

    Geometry (in Angstrom), charge = 0, multiplicity = 1:

    O           -2.005164885791    -1.372035447803    -0.298349861460
    C           -1.632850143422    -0.284435697938     0.022015539230
    C           -0.313896119101    -0.094540368407     0.750306128689
    C           -2.436243167745     0.956450616746    -0.298870728909
    C            0.864775466471    -0.098784666031    -0.233858941381
    H           -0.319308560779     0.833836228846     1.314497730903
    H           -0.202429500906    -0.915407431624     1.450434498257
    C            2.235292867443     0.009301578977     0.460469587412
    H            0.757692576656     0.701002500429    -0.963620329412
    H            0.821699054168    -1.017853202605    -0.810274412954
    C            3.248179953524     0.834202351293    -0.333212308786
    H            2.111514757760     0.471495714382     1.437256330573
    H            2.628605409074    -0.985418982928     0.647465552869
    H            2.902163506334     1.856320968135    -0.456201288438
    H            3.408774685714     0.418398182478    -1.324136593552
    H            4.208948375730     0.866419314738     0.170841305944
    H           -3.272672434201     0.701199613780    -0.934468020049
    H           -1.815757517863     1.702348409841    -0.786880865834
    H           -2.805809033308     1.399721665193     0.622103415125

  Mulliken Charges: (a.u.)
   Center  Symbol    Alpha    Beta     Spin     Total
       1     O     4.26187  4.26187  0.00000 -0.52375
       2     C     2.73788  2.73788  0.00000  0.52425
       3     C     3.20099  3.20099  0.00000 -0.40198
       4     C     3.28954  3.28954  0.00000 -0.57909
       5     C     3.16514  3.16514  0.00000 -0.33027
       6     H     0.41659  0.41659  0.00000  0.16682
       7     H     0.40052  0.40052  0.00000  0.19897
       8     C     3.15307  3.15307  0.00000 -0.30614
       9     H     0.41912  0.41912  0.00000  0.16177
      10     H     0.40479  0.40479  0.00000  0.19042
      11     C     3.24110  3.24110  0.00000 -0.48221
      12     H     0.42106  0.42106  0.00000  0.15789
      13     H     0.41572  0.41572  0.00000  0.16856
      14     H     0.42159  0.42159  0.00000  0.15681
      15     H     0.41957  0.41957  0.00000  0.16086
      16     H     0.41799  0.41799  0.00000  0.16403
      17     H     0.39699  0.39699  0.00000  0.20603
      18     H     0.40970  0.40970  0.00000  0.18060
      19     H     0.40678  0.40678  0.00000  0.18644

   Total alpha = 28.00000, Total beta = 28.00000, Total charge =  0.00000
