  ==> Input File <==

--------------------------------------------------------------------------
set {
	reference rhf
	basis 6-31G*
}

set_num_threads( 4 )
memory 2 gb

molecule MOL {
0 1

H	 -1.565112	 1.299368	 2.618473
O	 -1.195594	 2.034911	 2.150691
C	 -0.634915	 1.592997	 0.943487
C	 0.677300	 0.866063	 1.178704
H	 -1.317122	 0.948112	 0.396610
H	 -0.457414	 2.471660	 0.339422
O	 1.171513	 0.459272	 -0.058250
H	 0.516762	 0.004446	 1.829722
H	 1.377208	 1.529615	 1.683095
C	 2.397842	 -0.198080	 -0.002151
H	 2.508049	 -0.905315	 -0.822092
H	 3.173794	 0.550865	 -0.078850
H	 2.517602	 -0.735921	 0.936026

	symmetry c1
}
set optking {
	frozen_dihedral = ("
		4 7 10 13
	")
}

ee = optimize('scf')
oeprop('DIPOLE', 'QUADRUPOLE', 'MULLIKEN_CHARGES')
f=open( 'psi4out.xyz', 'w' )
f.write( "13  " )
f.write( str(ee) + "\n" )
f.write( MOL.save_string_xyz() )
f.close()
--------------------------------------------------------------------------

    Molecular point group: c1
  Charge       = 0
  Multiplicity = 1
  Basis Set: 6-31G*
  Basis Set:
  @DF-RHF Final Energy:  -267.94779606586593
    Total Energy =                       -267.9477960658662141
    Molecular point group: c1
  Basis Set: 6-31G*
  Basis Set:
  Basis Set: 6-31G*
  Basis Set:
  @DF-RHF Final Energy:  -267.94847558679066
    Total Energy =                       -267.9484755867908916
  Basis Set: 6-31G*
  Basis Set:
  Basis Set: 6-31G*
  Basis Set:
  @DF-RHF Final Energy:  -267.94864003552095
    Total Energy =                       -267.9486400355210662
  Basis Set: 6-31G*
  Basis Set:
  Basis Set: 6-31G*
  Basis Set:
  @DF-RHF Final Energy:  -267.94864120284683
    Total Energy =                       -267.9486412028467157
  Basis Set: 6-31G*
  Basis Set:
  Charge       = 0
  Multiplicity = 1
  Basis Set: 6-31G*
  Basis Set:

    Orbital Energies (a.u.)
    -----------------------

    Doubly Occupied:

       1A    -20.560425     2A    -20.560000     3A    -11.271162
       4A    -11.270104     5A    -11.268696     6A     -1.386356
       7A     -1.364743     8A     -1.018377     9A     -0.913521
      10A     -0.841839    11A     -0.708834    12A     -0.672694
      13A     -0.659913    14A     -0.635965    15A     -0.596755
      16A     -0.567566    17A     -0.548387    18A     -0.488862
      19A     -0.482425    20A     -0.438219    21A     -0.418776

  @DF-RHF Final Energy:  -267.94864146276558

   => Energetics <=

    Nuclear Repulsion Energy =            190.0670818954881724
    One-Electron Energy =                -742.6842037220085331
    Two-Electron Energy =                 284.6684803637549521
    DFT Exchange-Correlation Energy =       0.0000000000000000
    Empirical Dispersion Energy =           0.0000000000000000
    PCM Polarization Energy =               0.0000000000000000
    EFP Energy =                            0.0000000000000000
    Total Energy =                       -267.9486414627654085
    Molecular point group: c1
  Basis Set: 6-31G*
  Basis Set:

  -Total Gradient:
     Atom            X                  Y                   Z
    ------   -----------------  -----------------  -----------------
       1       -0.000003205919     0.000001588637     0.000005340301
       2       -0.000014028442    -0.000000765909     0.000011750927
       3        0.000007736122    -0.000000029476    -0.000000115018
       4       -0.001141117394    -0.002114421399     0.000246838144
       5       -0.000001771292     0.000001914178    -0.000000552057
       6        0.000005519205    -0.000005830995    -0.000002238344
       7        0.002003677305     0.003736388768    -0.000004098410
       8        0.000000357786    -0.000001062684    -0.000007191631
       9       -0.000000501547    -0.000003157643    -0.000003832042
      10       -0.002113736525    -0.004076180194    -0.001494500356
      11       -0.000003888984     0.000003616203     0.000004052901
      12       -0.000002737039     0.000002650031     0.000000311909
      13        0.001263696722     0.002455290486     0.001244233676

  **** Optimization is complete! (in 5 steps) ****
    Final optimized geometry and variables:
    Molecular point group: c1

    Geometry (in Angstrom), charge = 0, multiplicity = 1:

    H           -2.049605014148     0.343465714385     1.741688230885
    O           -1.679343632824     1.080387781610     1.276699597597
    C           -1.106383669017     0.640522248586     0.074266976013
    C            0.208669098241    -0.077567223526     0.320206439391
    H           -1.779704992768    -0.010400518789    -0.476378665482
    H           -0.930725194978     1.519185380075    -0.530254857448
    O            0.708707215162    -0.488401959085    -0.913899344285
    H            0.049632946610    -0.937485438001     0.972725606450
    H            0.899450419528     0.594001049285     0.826454561006
    C            1.939241959026    -1.145880632360    -0.872201315295
    H            1.982609230800    -1.839375289589    -1.701161513175
    H            2.758410959149    -0.436420547377    -0.963286046991
    H            2.073347786328    -1.687419605532     0.060533648457

  Mulliken Charges: (a.u.)
   Center  Symbol    Alpha    Beta     Spin     Total
       1     H     0.28129  0.28129  0.00000  0.43742
       2     O     4.37090  4.37090  0.00000 -0.74180
       3     C     3.00488  3.00488  0.00000 -0.00975
       4     C     2.99662  2.99662  0.00000  0.00677
       5     H     0.42231  0.42231  0.00000  0.15538
       6     H     0.40842  0.40842  0.00000  0.18316
       7     O     4.31002  4.31002  0.00000 -0.62003
       8     H     0.43691  0.43691  0.00000  0.12619
       9     H     0.42359  0.42359  0.00000  0.15281
      10     C     3.07786  3.07786  0.00000 -0.15572
      11     H     0.41329  0.41329  0.00000  0.17341
      12     H     0.42435  0.42435  0.00000  0.15130
      13     H     0.42957  0.42957  0.00000  0.14087

   Total alpha = 21.00000, Total beta = 21.00000, Total charge = -0.00000
