  ==> Input File <==

--------------------------------------------------------------------------
set {
	reference rhf
	basis 6-31G*
}

set_num_threads( 4 )
memory 2 gb

molecule MOL {
0 1

O	 2.863741	 -0.845858	 -1.845916
C	 2.507539	 -0.912153	 -0.713756
C	 1.076411	 -0.857540	 -0.236598
O	 3.347903	 -1.046386	 0.304773
C	 0.069262	 -0.715716	 -1.375743
H	 0.902482	 -1.752848	 0.351078
H	 0.999449	 -0.026039	 0.459375
C	 -1.379185	 -0.553459	 -0.902277
H	 0.147237	 -1.576827	 -2.032650
H	 0.345183	 0.144475	 -1.976044
C	 -1.968474	 -1.778093	 -0.196501
H	 -1.993349	 -0.323572	 -1.769847
H	 -1.450885	 0.311596	 -0.244592
C	 -3.446993	 -1.606431	 0.157775
H	 -1.851291	 -2.650903	 -0.837039
H	 -1.411765	 -1.990051	 0.713511
C	 -4.045153	 -2.822039	 0.868151
H	 -4.013679	 -1.407015	 -0.750155
H	 -3.566223	 -0.727578	 0.789519
C	 -5.522886	 -2.644027	 1.215018
H	 -3.925957	 -3.701348	 0.238667
H	 -3.482749	 -3.020307	 1.778191
H	 -5.917940	 -3.521643	 1.717342
H	 -6.118126	 -2.478539	 0.321431
H	 -5.671462	 -1.791873	 1.872309
C	 4.728119	 -1.109107	 -0.004993
H	 4.882018	 -1.033965	 -1.071845
H	 5.068212	 -2.067527	 0.355250
H	 5.265056	 -0.311663	 0.488280

	symmetry c1
}
set optking {
	frozen_dihedral = ("
		2 4 26 27
	")
}

ee = optimize('scf')
oeprop('DIPOLE', 'QUADRUPOLE', 'MULLIKEN_CHARGES')
f=open( 'psi4out.xyz', 'w' )
f.write( "29  " )
f.write( str(ee) + "\n" )
f.write( MOL.save_string_xyz() )
f.close()
--------------------------------------------------------------------------

    Molecular point group: c1
  Charge       = 0
  Multiplicity = 1
  Basis Set: 6-31G*
  Basis Set:
  @DF-RHF Final Energy:  -501.04093115709418
    Total Energy =                       -501.0409311570941782
    Molecular point group: c1
  Basis Set: 6-31G*
  Basis Set:
  Basis Set: 6-31G*
  Basis Set:
  @DF-RHF Final Energy:  -501.04135192862509
    Total Energy =                       -501.0413519286253177
  Basis Set: 6-31G*
  Basis Set:
  Basis Set: 6-31G*
  Basis Set:
  @DF-RHF Final Energy:  -501.04179865532478
    Total Energy =                       -501.0417986553243281
  Basis Set: 6-31G*
  Basis Set:
  Basis Set: 6-31G*
  Basis Set:
  @DF-RHF Final Energy:  -501.04181504362145
    Total Energy =                       -501.0418150436214546
  Basis Set: 6-31G*
  Basis Set:
  Basis Set: 6-31G*
  Basis Set:
  @DF-RHF Final Energy:  -501.04194271653739
    Total Energy =                       -501.0419427165372781
  Basis Set: 6-31G*
  Basis Set:
  Basis Set: 6-31G*
  Basis Set:
  @DF-RHF Final Energy:  -501.04197086940030
    Total Energy =                       -501.0419708693993925
  Basis Set: 6-31G*
  Basis Set:
  Charge       = 0
  Multiplicity = 1
  Basis Set: 6-31G*
  Basis Set:

    Orbital Energies (a.u.)
    -----------------------

    Doubly Occupied:

       1A    -20.602232     2A    -20.544443     3A    -11.373534
       4A    -11.279074     5A    -11.234055     6A    -11.218527
       7A    -11.217274     8A    -11.215761     9A    -11.215644
      10A    -11.214248    11A    -11.208939    12A     -1.466102
      13A     -1.363031    14A     -1.097684    15A     -1.066490
      16A     -1.019564    17A     -0.977827    18A     -0.928410
      19A     -0.861245    20A     -0.798891    21A     -0.790153
      22A     -0.762786    23A     -0.701720    24A     -0.679961
      25A     -0.672057    26A     -0.650661    27A     -0.628772
      28A     -0.604969    29A     -0.594933    30A     -0.580427
      31A     -0.568416    32A     -0.550156    33A     -0.533837
      34A     -0.527024    35A     -0.514767    36A     -0.511588
      37A     -0.496151    38A     -0.477551    39A     -0.469845
      40A     -0.462095    41A     -0.458331    42A     -0.451891
      43A     -0.441066    44A     -0.435341

  @DF-RHF Final Energy:  -501.04197091176820

   => Energetics <=

    Nuclear Repulsion Energy =            609.6907316055026058
    One-Electron Energy =               -1890.5304557003669288
    Two-Electron Energy =                 779.7977531830956650
    DFT Exchange-Correlation Energy =       0.0000000000000000
    Empirical Dispersion Energy =           0.0000000000000000
    PCM Polarization Energy =               0.0000000000000000
    EFP Energy =                            0.0000000000000000
    Total Energy =                       -501.0419709117686580
    Molecular point group: c1
  Basis Set: 6-31G*
  Basis Set:

  -Total Gradient:
     Atom            X                  Y                   Z
    ------   -----------------  -----------------  -----------------
       1        0.000000318229     0.000001058522    -0.000002893466
       2       -0.000007027669    -0.000003302384    -0.000012067634
       3       -0.000002955133    -0.000012979452     0.000001124405
       4        0.000021950582    -0.000018915954     0.000003728429
       5        0.000000149555     0.000022651336    -0.000000556365
       6       -0.000004391434     0.000000562743     0.000008279619
       7       -0.000006880647     0.000000775714    -0.000002674621
       8       -0.000002296470    -0.000006559271     0.000000466420
       9        0.000003201481     0.000000823526     0.000003916823
      10       -0.000000443137    -0.000002329172    -0.000000031905
      11        0.000002377630     0.000006202543     0.000007035592
      12       -0.000003602981    -0.000002839091     0.000001832117
      13        0.000002322380     0.000000431982    -0.000001736760
      14       -0.000001520359    -0.000002078054    -0.000004705194
      15        0.000000561920     0.000003904401     0.000000470822
      16        0.000005491358    -0.000001782164     0.000001863964
      17       -0.000001558929    -0.000001751437    -0.000004153699
      18        0.000000070318    -0.000001520610    -0.000002144423
      19       -0.000001688450    -0.000000342451    -0.000002070416
      20        0.000001670810     0.000002208152     0.000005537251
      21       -0.000002421258     0.000000633708    -0.000001633152
      22        0.000001414497    -0.000002088404    -0.000001539614
      23        0.000000452026     0.000000773975     0.000001976921
      24        0.000001457730    -0.000001624593    -0.000000068898
      25       -0.000001541213     0.000001386321    -0.000000516211
      26        0.000001439050     0.000022203326    -0.000020772498
      27        0.000010094094    -0.000007313561     0.000003640421
      28       -0.000018951826     0.000000674546     0.000006362490
      29        0.000002307846     0.000001135804     0.000011329584

  **** Optimization is complete! (in 7 steps) ****
    Final optimized geometry and variables:
    Molecular point group: c1

    Geometry (in Angstrom), charge = 0, multiplicity = 1:

    O            2.962797364498     0.512525633729    -1.633936923413
    C            2.621786150843     0.442742680522    -0.497676574020
    C            1.193798434663     0.498131722507    -0.009884970555
    O            3.459711471648     0.303824931235     0.523966643924
    C            0.177961820973     0.647915014154    -1.140140173912
    H            1.022643038745    -0.399736261409     0.574617633494
    H            1.124102264515     1.326063303196     0.691008393821
    C           -1.266452120542     0.808921877499    -0.654015035684
    H            0.249590815260    -0.209317640082    -1.802776020607
    H            0.449952485858     1.511381112945    -1.737495798521
    C           -1.851380774391    -0.419183603727     0.049379868643
    H           -1.887427719573     1.044448498705    -1.515214137271
    H           -1.331956862159     1.670198838474     0.009264975537
    C           -3.327075243934    -0.248451007750     0.415702501800
    H           -1.739686914787    -1.288493008983    -0.596870160574
    H           -1.287999910846    -0.636612981723     0.953968022276
    C           -3.920654555458    -1.467298271950     1.124358068007
    H           -3.900498947669    -0.044012497614    -0.486863858984
    H           -3.440935079929     0.627219025059     1.052831281437
    C           -5.395154171791    -1.289492253271     1.484848388123
    H           -3.807912118111    -2.343226732727     0.488999424275
    H           -3.350748697869    -1.671302149822     2.028443722161
    H           -5.786870311835    -2.169276067596     1.986007536148
    H           -5.997862113267    -1.118720708023     0.597282556185
    H           -5.537116410811    -0.440591806634     2.147790056111
    C            4.854249060662     0.232667711421     0.278912478882
    H            5.063983588096     0.305602778688    -0.774743144122
    H            5.212340694869    -0.710321482403     0.667673037088
    H            5.327497071490     1.045193146910     0.812263886941

  Mulliken Charges: (a.u.)
   Center  Symbol    Alpha    Beta     Spin     Total
       1     O     4.28536  4.28536  0.00000 -0.57073
       2     C     2.60445  2.60445  0.00000  0.79109
       3     C     3.21026  3.21026  0.00000 -0.42052
       4     O     4.30971  4.30971  0.00000 -0.61942
       5     C     3.15374  3.15374  0.00000 -0.30748
       6     H     0.39890  0.39890  0.00000  0.20219
       7     H     0.40138  0.40138  0.00000  0.19724
       8     C     3.15658  3.15658  0.00000 -0.31316
       9     H     0.41315  0.41315  0.00000  0.17371
      10     H     0.40888  0.40888  0.00000  0.18224
      11     C     3.15503  3.15503  0.00000 -0.31007
      12     H     0.41833  0.41833  0.00000  0.16334
      13     H     0.42393  0.42393  0.00000  0.15213
      14     C     3.15028  3.15028  0.00000 -0.30056
      15     H     0.42265  0.42265  0.00000  0.15471
      16     H     0.42360  0.42360  0.00000  0.15279
      17     C     3.15144  3.15144  0.00000 -0.30289
      18     H     0.42334  0.42334  0.00000  0.15331
      19     H     0.42400  0.42400  0.00000  0.15200
      20     C     3.23934  3.23934  0.00000 -0.47868
      21     H     0.42281  0.42281  0.00000  0.15437
      22     H     0.42345  0.42345  0.00000  0.15310
      23     H     0.41926  0.41926  0.00000  0.16148
      24     H     0.42156  0.42156  0.00000  0.15689
      25     H     0.42184  0.42184  0.00000  0.15632
      26     C     3.09881  3.09881  0.00000 -0.19762
      27     H     0.39315  0.39315  0.00000  0.21369
      28     H     0.41236  0.41236  0.00000  0.17528
      29     H     0.41238  0.41238  0.00000  0.17524

   Total alpha = 44.00000, Total beta = 44.00000, Total charge = -0.00000
