  ==> Input File <==

--------------------------------------------------------------------------
set {
	reference rhf
	basis cc-pvtz
}

set_num_threads( 4 )
memory 2 gb

molecule MOL {
0 1

H	 -3.436473	 1.252944	 -1.023892
O	 -3.458596	 0.315260	 -0.960865
C	 -3.176635	 -0.080824	 0.355601
C	 -1.763371	 0.265266	 0.799691
H	 -3.321825	 -1.153438	 0.379502
H	 -3.895468	 0.357385	 1.043382
C	 -0.673390	 -0.426948	 -0.013392
H	 -1.631049	 1.344913	 0.747560
H	 -1.664587	 -0.001624	 1.849167
C	 0.737842	 -0.043159	 0.423759
H	 -0.806103	 -0.190518	 -1.063345
H	 -0.797221	 -1.503753	 0.074146
C	 1.824000	 -0.743224	 -0.390623
H	 0.850588	 1.033777	 0.343840
H	 0.868587	 -0.286314	 1.476203
C	 3.255957	 -0.453067	 0.062319
H	 1.718250	 -0.470599	 -1.438164
H	 1.658105	 -1.815850	 -0.339904
C	 3.402204	 -0.126592	 1.546627
H	 3.635552	 0.383697	 -0.516049
H	 3.888658	 -1.301957	 -0.183641
H	 2.775740	 0.715463	 1.823328
H	 4.427449	 0.134021	 1.783679
H	 3.126499	 -0.964405	 2.175643

	symmetry c1
}
set optking {
	frozen_dihedral = ("
		20 16 13 17
	")
}

ee = optimize('scf')
oeprop('DIPOLE', 'QUADRUPOLE', 'MULLIKEN_CHARGES')
f=open( 'psi4out.xyz', 'w' )
f.write( "24  " )
f.write( str(ee) + "\n" )
f.write( MOL.save_string_xyz() )
f.close()
--------------------------------------------------------------------------

    Molecular point group: c1
  Charge       = 0
  Multiplicity = 1
  Basis Set: CC-PVTZ
  Basis Set:
  @DF-RHF Final Energy:  -349.37434647494172
    Total Energy =                       -349.3743464749416034
    Molecular point group: c1
  Basis Set: CC-PVTZ
  Basis Set:
  Basis Set: CC-PVTZ
  Basis Set:
  @DF-RHF Final Energy:  -349.37554003846492
    Total Energy =                       -349.3755400384641234
  Basis Set: CC-PVTZ
  Basis Set:
  Basis Set: CC-PVTZ
  Basis Set:
  @DF-RHF Final Energy:  -349.37645561036470
    Total Energy =                       -349.3764556103645873
  Basis Set: CC-PVTZ
  Basis Set:
  Basis Set: CC-PVTZ
  Basis Set:
  @DF-RHF Final Energy:  -349.37652178271054
    Total Energy =                       -349.3765217827100855
  Basis Set: CC-PVTZ
  Basis Set:
  Basis Set: CC-PVTZ
  Basis Set:
  @DF-RHF Final Energy:  -349.37653600227424
    Total Energy =                       -349.3765360022746336
  Basis Set: CC-PVTZ
  Basis Set:
  Basis Set: CC-PVTZ
  Basis Set:
  @DF-RHF Final Energy:  -349.37654094067778
    Total Energy =                       -349.3765409406777280
  Basis Set: CC-PVTZ
  Basis Set:
  Charge       = 0
  Multiplicity = 1
  Basis Set: CC-PVTZ
  Basis Set:

    Orbital Energies (a.u.)
    -----------------------

    Doubly Occupied:

       1A    -20.546197     2A    -11.265389     3A    -11.214971
       4A    -11.212104     5A    -11.209978     6A    -11.209380
       7A    -11.208601     8A    -11.205730     9A     -1.364036
      10A     -1.088981    11A     -1.048132    12A     -0.986110
      13A     -0.916484    14A     -0.854134    15A     -0.802462
      16A     -0.770496    17A     -0.681666    18A     -0.657262
      19A     -0.628080    20A     -0.619099    21A     -0.594370
      22A     -0.587491    23A     -0.555394    24A     -0.545358
      25A     -0.518972    26A     -0.505603    27A     -0.503162
      28A     -0.471030    29A     -0.469591    30A     -0.460428
      31A     -0.453339    32A     -0.449510    33A     -0.420591

  @DF-RHF Final Energy:  -349.37654128029965

   => Energetics <=

    Nuclear Repulsion Energy =            385.5161087165225808
    One-Electron Energy =               -1237.7370440692054672
    Two-Electron Energy =                 502.8443940723831247
    DFT Exchange-Correlation Energy =       0.0000000000000000
    Empirical Dispersion Energy =           0.0000000000000000
    PCM Polarization Energy =               0.0000000000000000
    EFP Energy =                            0.0000000000000000
    Total Energy =                       -349.3765412802997616
    Molecular point group: c1
  Basis Set: CC-PVTZ
  Basis Set:

  -Total Gradient:
     Atom            X                  Y                   Z
    ------   -----------------  -----------------  -----------------
       1        0.000001082854    -0.000001572498     0.000001523421
       2        0.000004043965    -0.000006250198    -0.000001783701
       3        0.000001276371     0.000007423486    -0.000004676898
       4        0.000020342062    -0.000001789400     0.000005952190
       5        0.000000446195     0.000001673415    -0.000002077090
       6        0.000002554763    -0.000000399313     0.000002489300
       7        0.000012256275    -0.000002646719    -0.000022310242
       8       -0.000003134196    -0.000002998536    -0.000000758543
       9        0.000001187943     0.000000395734     0.000002966758
      10        0.000001666475     0.000020335496     0.000030733406
      11       -0.000007737938    -0.000001195244    -0.000014185611
      12       -0.000004005425     0.000001540613     0.000003846970
      13        0.002824024434    -0.007599760356    -0.002833617487
      14       -0.000001810124     0.000013894888     0.000006689722
      15       -0.000002838882    -0.000007973954    -0.000016001456
      16       -0.003009073822     0.005950361897     0.005477769871
      17       -0.001896199453     0.005490346321     0.001575363774
      18        0.000005353272    -0.000025037116    -0.000015177697
      19       -0.000025980781    -0.000007261832     0.000015061131
      20        0.002113574093    -0.003811114533    -0.004215993738
      21       -0.000037298725    -0.000019132169    -0.000001145738
      22       -0.000005041861     0.000003319232     0.000006923240
      23       -0.000011430262     0.000001483624    -0.000017100711
      24        0.000016742766    -0.000003642838     0.000015509132

  **** Optimization is complete! (in 7 steps) ****
    Final optimized geometry and variables:
    Molecular point group: c1

    Geometry (in Angstrom), charge = 0, multiplicity = 1:

    H           -3.364655241683     1.437038602721    -1.280777023713
    O           -3.400719222855     0.498706639959    -1.237101611167
    C           -3.166627680016     0.073733606743     0.079684972945
    C           -1.764181326437     0.392394870105     0.575662589598
    H           -3.326083026836    -0.997127524697     0.077443366551
    H           -3.901919532158     0.507945441796     0.752454030030
    C           -0.657155035309    -0.297096844267    -0.216477785877
    H           -1.616949908087     1.471102379081     0.549955230404
    H           -1.702584947795     0.103271300474     1.622047321471
    C            0.743963015937     0.060534989049     0.272488165355
    H           -0.755237223178    -0.040234706756    -1.265362951223
    H           -0.795853628561    -1.374008247437    -0.152893762863
    C            1.842068623952    -0.654522970345    -0.517459821163
    H            0.884957641380     1.136571018087     0.194203891851
    H            0.824082412988    -0.180893602863     1.327744760653
    C            3.283947611444    -0.250879770097    -0.161889692859
    H            1.674419915651    -0.415863137289    -1.563170248419
    H            1.718323199244    -1.726738002831    -0.401709341784
    C            3.569492272148     0.031502841120     1.309347998114
    H            3.584643461844     0.591446375051    -0.777861852457
    H            3.936841552317    -1.058487886906    -0.482263922327
    H            3.026209152610     0.894833671044     1.673106185389
    H            4.625994231261     0.223699664805     1.457119438977
    H            3.300454090037    -0.815425670242     1.932364019700

  Mulliken Charges: (a.u.)
   Center  Symbol    Alpha    Beta     Spin     Total
       1     H     0.39533  0.39533  0.00000  0.20934
       2     O     4.20374  4.20374  0.00000 -0.40748
       3     C     2.97787  2.97787  0.00000  0.04426
       4     C     3.10164  3.10164  0.00000 -0.20327
       5     H     0.45881  0.45881  0.00000  0.08238
       6     H     0.46028  0.46028  0.00000  0.07944
       7     C     3.08923  3.08923  0.00000 -0.17847
       8     H     0.45924  0.45924  0.00000  0.08153
       9     H     0.45343  0.45343  0.00000  0.09314
      10     C     3.09192  3.09192  0.00000 -0.18384
      11     H     0.44589  0.44589  0.00000  0.10823
      12     H     0.45554  0.45554  0.00000  0.08893
      13     C     3.09529  3.09529  0.00000 -0.19059
      14     H     0.45468  0.45468  0.00000  0.09063
      15     H     0.45284  0.45284  0.00000  0.09432
      16     C     3.08883  3.08883  0.00000 -0.17766
      17     H     0.45154  0.45154  0.00000  0.09693
      18     H     0.45163  0.45163  0.00000  0.09675
      19     C     3.15676  3.15676  0.00000 -0.31352
      20     H     0.45274  0.45274  0.00000  0.09451
      21     H     0.45172  0.45172  0.00000  0.09657
      22     H     0.45225  0.45225  0.00000  0.09550
      23     H     0.44507  0.44507  0.00000  0.10986
      24     H     0.45374  0.45374  0.00000  0.09252

   Total alpha = 33.00000, Total beta = 33.00000, Total charge = -0.00000
