                              Psi4 1.0.54 Driver

  ==> Input File <==

--------------------------------------------------------------------------
set {
	reference rhf
	basis cc-pvtz
}

set_num_threads( 4 )
memory 2 gb

molecule MOL {
0 1

O	 -2.767922	 0.095031	 0.150019
C	 -1.999722	 -0.489929	 0.842205
C	 -0.766723	 -1.150314	 0.257695
C	 -2.197924	 -0.590890	 2.335956
C	 0.376695	 -0.140025	 0.100361
H	 -1.036580	 -1.547507	 -0.712627
H	 -0.447041	 -1.974169	 0.886926
C	 1.630207	 -0.772146	 -0.501001
H	 0.026985	 0.674512	 -0.521297
H	 0.623015	 0.288510	 1.068857
C	 2.907848	 -0.545876	 0.309149
H	 1.772784	 -0.391628	 -1.509394
H	 1.468529	 -1.842059	 -0.599744
C	 3.373802	 0.906639	 0.372125
H	 3.699140	 -1.146831	 -0.127906
H	 2.764321	 -0.923458	 1.318191
H	 3.519798	 1.311927	 -0.623875
H	 4.316899	 0.983758	 0.900700
H	 2.661122	 1.540651	 0.885346
H	 -2.413589	 -1.621736	 2.598336
H	 -3.017761	 0.038711	 2.645859
H	 -1.292779	 -0.309247	 2.862244

	symmetry c1
}
set optking {
	frozen_dihedral = ("
		3 5 8 12
	")
}

ee,wfn = optimize('scf', return_wfn=True)
oeprop( wfn, 'DIPOLE', 'QUADRUPOLE', 'MULLIKEN_CHARGES')
f=open( 'psi4out.xyz', 'w' )
f.write( "22  " )
f.write( str(ee) + "\n" )
f.write( MOL.save_string_xyz() )
f.close()
--------------------------------------------------------------------------

    Molecular point group: c1
  Charge       = 0
  Multiplicity = 1
  Basis Set: CC-PVTZ
  Basis Set:
  @DF-RHF Final Energy:  -348.21823409329045
    Total Energy =                       -348.2182340932906754
    Molecular point group: c1
  Basis Set: CC-PVTZ
  Basis Set:
  Basis Set: CC-PVTZ
  Basis Set:
  @DF-RHF Final Energy:  -348.21853720690837
    Total Energy =                       -348.2185372069083087
  Basis Set: CC-PVTZ
  Basis Set:
  Basis Set: CC-PVTZ
  Basis Set:
  @DF-RHF Final Energy:  -348.21856160865610
    Total Energy =                       -348.2185616086554205
  Basis Set: CC-PVTZ
  Basis Set:
  Basis Set: CC-PVTZ
  Basis Set:
  @DF-RHF Final Energy:  -348.21861719224768
    Total Energy =                       -348.2186171922473932
  Basis Set: CC-PVTZ
  Basis Set:
  @DF-RHF Final Energy:  -348.21852065477941
    Total Energy =                       -348.2185206547796952
  Basis Set: CC-PVTZ
  Basis Set:
  @DF-RHF Final Energy:  -348.21861748940961
    Total Energy =                       -348.2186174894096666
  Basis Set: CC-PVTZ
  Basis Set:
  Basis Set: CC-PVTZ
  Basis Set:
  @DF-RHF Final Energy:  -348.21861197245801
    Total Energy =                       -348.2186119724578930
  Basis Set: CC-PVTZ
  Basis Set:
  Basis Set: CC-PVTZ
  Basis Set:
  @DF-RHF Final Energy:  -348.21862438272007
    Total Energy =                       -348.2186243827202361
  Basis Set: CC-PVTZ
  Basis Set:
  Charge       = 0
  Multiplicity = 1
  Basis Set: CC-PVTZ
  Basis Set:

    Orbital Energies (a.u.)
    -----------------------

    Doubly Occupied:

       1A    -20.536807     2A    -11.319092     3A    -11.228394
       4A    -11.227779     5A    -11.226967     6A    -11.220708
       7A    -11.220100     8A    -11.211335     9A     -1.396867
      10A     -1.096197    11A     -1.046322    12A     -0.999988
      13A     -0.938327    14A     -0.860387    15A     -0.787287
      16A     -0.735981    17A     -0.663670    18A     -0.647580
      19A     -0.628792    20A     -0.617129    21A     -0.598615
      22A     -0.590436    23A     -0.560533    24A     -0.544090
      25A     -0.532665    26A     -0.526193    27A     -0.499211
      28A     -0.491747    29A     -0.469107    30A     -0.466072
      31A     -0.460551    32A     -0.398403

  @DF-RHF Final Energy:  -348.21862589903282

   => Energetics <=

    Nuclear Repulsion Energy =            374.0993818166131746
    One-Electron Energy =               -1213.1413512839674240
    Two-Electron Energy =                 490.8233435683217749
    DFT Exchange-Correlation Energy =       0.0000000000000000
    Empirical Dispersion Energy =           0.0000000000000000
    PCM Polarization Energy =               0.0000000000000000
    EFP Energy =                            0.0000000000000000
    Total Energy =                       -348.2186258990324177
    Molecular point group: c1
  Basis Set: CC-PVTZ
  Basis Set:

  -Total Gradient:
     Atom            X                  Y                   Z
    ------   -----------------  -----------------  -----------------
       1       -0.000000699821    -0.000004461221     0.000010566163
       2        0.000014592814     0.000007929244     0.000002155627
       3        0.000515632931    -0.000412874134     0.001489627828
       4       -0.000012576978    -0.000005056842    -0.000005050345
       5       -0.000420666731     0.000949461438    -0.001858559516
       6       -0.000002784144    -0.000000875914     0.000005301749
       7        0.000000392682     0.000002787470    -0.000005165112
       8       -0.001361456064    -0.002207289893    -0.000490270618
       9        0.000004990327    -0.000006502755     0.000000098476
      10        0.000001367099     0.000000069429    -0.000003472425
      11       -0.000011387250     0.000005233945     0.000007397595
      12        0.001265466778     0.001660697112     0.000851750061
      13       -0.000008367441     0.000004422776     0.000002759747
      14        0.000009739565    -0.000025250020     0.000003530668
      15       -0.000010244355     0.000018216183     0.000010156104
      16        0.000010700722     0.000005463980    -0.000012832176
      17       -0.000004291360    -0.000001472433    -0.000015171780
      18        0.000021452406     0.000002896162     0.000011511058
      19       -0.000016442438     0.000001539795     0.000005267140
      20        0.000002726275     0.000004822397    -0.000001825831
      21        0.000002764356    -0.000000873628    -0.000002406309
      22       -0.000000909366     0.000001116909    -0.000005368106

  **** Optimization is complete! (in 9 steps) ****
    Final optimized geometry and variables:
    Molecular point group: c1

    Geometry (in Angstrom), charge = 0, multiplicity = 1:

    O           -2.837877929128     0.458325863414    -0.338893441685
    C           -2.081728233277    -0.144259878072     0.351347156936
    C           -0.857174316931    -0.819474882826    -0.233913422976
    C           -2.288756003966    -0.255792882784     1.843131582059
    C            0.307432427556     0.170282909801    -0.372667658163
    H           -1.128943224805    -1.203429134463    -1.209168179372
    H           -0.552783785357    -1.654067901004     0.388796903754
    C            1.567248863071    -0.474526491557    -0.986866018047
    H           -0.022744647765     1.010948800360    -0.968987252352
    H            0.544541761078     0.567601807141     0.609479608757
    C            2.847149764512    -0.248024061996    -0.179310702816
    H            1.724259926385    -0.082083543832    -1.986513341626
    H            1.411928575040    -1.542256939667    -1.095895207233
    C            3.312977408728     1.205156573933    -0.151479015565
    H            3.637746640114    -0.860906673123    -0.600937822391
    H            2.697978056729    -0.602117199069     0.837712374270
    H            3.514850273465     1.565208806476    -1.154955261215
    H            4.223857752283     1.309840889997     0.426564084180
    H            2.569501320131     1.859943901065     0.288582566295
    H           -2.526733747569    -1.284687829063     2.093648278952
    H           -3.097480169237     0.386873097402     2.155350971570
    H           -1.381049662138     0.002037953715     2.377082863265

  Mulliken Charges: (a.u.)
   Center  Symbol    Alpha    Beta     Spin     Total
       1     O     4.17729  4.17729  0.00000 -0.35457
       2     C     2.85916  2.85916  0.00000  0.28167
       3     C     3.09787  3.09787  0.00000 -0.19574
       4     C     3.15559  3.15559  0.00000 -0.31119
       5     C     3.10892  3.10892  0.00000 -0.21784
       6     H     0.43827  0.43827  0.00000  0.12346
       7     H     0.44897  0.44897  0.00000  0.10206
       8     C     3.09960  3.09960  0.00000 -0.19921
       9     H     0.43479  0.43479  0.00000  0.13042
      10     H     0.45140  0.45140  0.00000  0.09719
      11     C     3.09049  3.09049  0.00000 -0.18098
      12     H     0.44700  0.44700  0.00000  0.10599
      13     H     0.44771  0.44771  0.00000  0.10458
      14     C     3.14955  3.14955  0.00000 -0.29909
      15     H     0.44768  0.44768  0.00000  0.10464
      16     H     0.45602  0.45602  0.00000  0.08796
      17     H     0.45338  0.45338  0.00000  0.09325
      18     H     0.44702  0.44702  0.00000  0.10597
      19     H     0.45392  0.45392  0.00000  0.09217
      20     H     0.44830  0.44830  0.00000  0.10340
      21     H     0.43597  0.43597  0.00000  0.12806
      22     H     0.45109  0.45109  0.00000  0.09781

   Total alpha = 32.00000, Total beta = 32.00000, Total charge = -0.00000

*** Psi4 exiting successfully. Buy a developer a beer!
