                              Psi4 1.0.54 Driver

  ==> Input File <==

--------------------------------------------------------------------------
set {
	reference rhf
	basis cc-pvtz
}

set_num_threads( 4 )
memory 2 gb

molecule MOL {
0 1

O	 0.395927	 1.296676	 -0.000076
C	 0.503051	 0.114301	 -0.000074
C	 -0.701422	 -0.805636	 -0.000109
C	 1.858118	 -0.556123	 0.000212
C	 -2.001852	 -0.124323	 -0.396055
H	 -0.479933	 -1.635461	 -0.666269
H	 -0.779370	 -1.243523	 0.991667
H	 -1.934217	 0.291418	 -1.392455
H	 -2.819831	 -0.834506	 -0.375908
H	 -2.236325	 0.686832	 0.280171
H	 1.961106	 -1.191101	 -0.872843
H	 2.636688	 0.191085	 -0.000109
H	 1.961070	 -1.190284	 0.873873

	symmetry c1
}
set optking {
	frozen_dihedral = ("
		6 3 2 1
	")
}

ee,wfn = optimize('scf', return_wfn=True)
oeprop( wfn, 'DIPOLE', 'QUADRUPOLE', 'MULLIKEN_CHARGES')
f=open( 'psi4out.xyz', 'w' )
f.write( "13  " )
f.write( str(ee) + "\n" )
f.write( MOL.save_string_xyz() )
f.close()
--------------------------------------------------------------------------

    Molecular point group: c1
  Charge       = 0
  Multiplicity = 1
  Basis Set: CC-PVTZ
  Basis Set:
  @DF-RHF Final Energy:  -231.08315337800008
    Total Energy =                       -231.0831533780000200
    Molecular point group: c1
  Basis Set: CC-PVTZ
  Basis Set:
  Basis Set: CC-PVTZ
  Basis Set:
  @DF-RHF Final Energy:  -231.07404620176192
    Total Energy =                       -231.0740462017619734
  Basis Set: CC-PVTZ
  Basis Set:
  Basis Set: CC-PVTZ
  Basis Set:
  @DF-RHF Final Energy:  -231.08222721222515
    Total Energy =                       -231.0822272122252343
  Basis Set: CC-PVTZ
  Basis Set:
  Basis Set: CC-PVTZ
  Basis Set:
  @DF-RHF Final Energy:  -231.08332483556953
    Total Energy =                       -231.0833248355694991
  Basis Set: CC-PVTZ
  Basis Set:
  Basis Set: CC-PVTZ
  Basis Set:
  @DF-RHF Final Energy:  -231.08337335616741
    Total Energy =                       -231.0833733561674990
  Basis Set: CC-PVTZ
  Basis Set:
  Basis Set: CC-PVTZ
  Basis Set:
  @DF-RHF Final Energy:  -231.08339444665691
    Total Energy =                       -231.0833944466569960
  Basis Set: CC-PVTZ
  Basis Set:
  Basis Set: CC-PVTZ
  Basis Set:
  @DF-RHF Final Energy:  -231.08340768130930
    Total Energy =                       -231.0834076813091542
  Basis Set: CC-PVTZ
  Basis Set:
  Charge       = 0
  Multiplicity = 1
  Basis Set: CC-PVTZ
  Basis Set:

    Orbital Energies (a.u.)
    -----------------------

    Doubly Occupied:

       1A    -20.539358     2A    -11.321343     3A    -11.233671
       4A    -11.227732     5A    -11.213217     6A     -1.399695
       7A     -1.063002     8A     -1.001473     9A     -0.879496
      10A     -0.731236    11A     -0.660799    12A     -0.641989
      13A     -0.623534    14A     -0.584539    15A     -0.572001
      16A     -0.523436    17A     -0.515751    18A     -0.508548
      19A     -0.487670    20A     -0.404746

  @DF-RHF Final Energy:  -231.08341043249109

   => Energetics <=

    Nuclear Repulsion Energy =            177.2791590311040579
    One-Electron Energy =                -664.4586636859658029
    Two-Electron Energy =                 256.0960942223704819
    DFT Exchange-Correlation Energy =       0.0000000000000000
    Empirical Dispersion Energy =           0.0000000000000000
    PCM Polarization Energy =               0.0000000000000000
    EFP Energy =                            0.0000000000000000
    Total Energy =                       -231.0834104324912346
    Molecular point group: c1
  Basis Set: CC-PVTZ
  Basis Set:

  -Total Gradient:
     Atom            X                  Y                   Z
    ------   -----------------  -----------------  -----------------
       1       -0.000138062375     0.000125780473     0.000858629588
       2        0.000371377693    -0.000334372715    -0.001028636328
       3       -0.000227843587     0.000528422063    -0.000493901609
       4       -0.000126090760     0.000199930255    -0.000024524909
       5       -0.000011073042     0.000010404707     0.000019076269
       6        0.000130345508    -0.000441859885     0.000704510977
       7       -0.000013412045     0.000015502056    -0.000012633547
       8       -0.000003836925     0.000006490648    -0.000004162392
       9       -0.000014643297    -0.000004814079    -0.000007740252
      10        0.000000835250    -0.000006346340    -0.000016944951
      11       -0.000011695341    -0.000049069340    -0.000031933733
      12        0.000064336278     0.000006181707     0.000020463751
      13       -0.000020237355    -0.000056249549     0.000017797137

  **** Optimization is complete! (in 8 steps) ****
    Final optimized geometry and variables:
    Molecular point group: c1

    Geometry (in Angstrom), charge = 0, multiplicity = 1:

    O            0.630826457865     1.203849412644     0.100670602117
    C            0.499275751641     0.024280989140     0.133292587723
    C           -0.855315698473    -0.639718245012    -0.012897924800
    C            1.677793325627    -0.897299853713     0.343999456773
    C           -1.942096188810     0.277859807633    -0.551201220355
    H           -0.743419196260    -1.527154197107    -0.628311918512
    H           -1.122561166279    -1.007391133465     0.975855035448
    H           -1.693216260628     0.634574317768    -1.542736894888
    H           -2.886896914344    -0.249331676676    -0.607118643583
    H           -2.067356645635     1.142509265916     0.085155161709
    H            1.877505698537    -1.439057440789    -0.574871891696
    H            2.550420741178    -0.324156142075     0.617431372428
    H            1.460165641646    -1.632484304514     1.110479544705

  Mulliken Charges: (a.u.)
   Center  Symbol    Alpha    Beta     Spin     Total
       1     O     4.17085  4.17085  0.00000 -0.34169
       2     C     2.86185  2.86185  0.00000  0.27630
       3     C     3.10121  3.10121  0.00000 -0.20242
       4     C     3.15031  3.15031  0.00000 -0.30062
       5     C     3.14178  3.14178  0.00000 -0.28356
       6     H     0.44679  0.44679  0.00000  0.10642
       7     H     0.44586  0.44586  0.00000  0.10828
       8     H     0.45087  0.45087  0.00000  0.09825
       9     H     0.45053  0.45053  0.00000  0.09894
      10     H     0.44413  0.44413  0.00000  0.11175
      11     H     0.44886  0.44886  0.00000  0.10228
      12     H     0.43582  0.43582  0.00000  0.12835
      13     H     0.45114  0.45114  0.00000  0.09772

   Total alpha = 20.00000, Total beta = 20.00000, Total charge = -0.00000

*** Psi4 exiting successfully. Buy a developer a beer!
