  ==> Input File <==

--------------------------------------------------------------------------
set {
	reference rhf
	basis cc-pvtz
}

set_num_threads( 4 )
memory 2 gb

molecule MOL {
0 1

H	 2.285939	 -0.029892	 0.470569
O	 1.527096	 -0.592969	 0.494388
C	 0.489979	 0.078084	 0.002623
C	 -0.763662	 -0.754014	 0.000816
O	 0.584729	 1.191410	 -0.383949
C	 -2.038001	 0.074705	 -0.000833
H	 -0.712945	 -1.405886	 -0.864342
H	 -0.715137	 -1.405770	 0.866182
H	 -2.087267	 0.710831	 -0.874232
H	 -2.903419	 -0.576199	 -0.001922
H	 -2.089467	 0.710909	 0.872389

	symmetry c1
}
set optking {
	frozen_dihedral = ("
		2 3 4 7
	")
}

ee = optimize('scf')
oeprop('DIPOLE', 'QUADRUPOLE', 'MULLIKEN_CHARGES')
f=open( 'psi4out.xyz', 'w' )
f.write( "11  " )
f.write( str(ee) + "\n" )
f.write( MOL.save_string_xyz() )
f.close()
--------------------------------------------------------------------------

    Molecular point group: c1
  Charge       = 0
  Multiplicity = 1
  Basis Set: CC-PVTZ
  Basis Set:
  @DF-RHF Final Energy:  -266.95260258671607
    Total Energy =                       -266.9526025867160115
    Molecular point group: c1
  Basis Set: CC-PVTZ
  Basis Set:
  Basis Set: CC-PVTZ
  Basis Set:
  @DF-RHF Final Energy:  -266.95279396131150
    Total Energy =                       -266.9527939613113858
  Basis Set: CC-PVTZ
  Basis Set:
  Basis Set: CC-PVTZ
  Basis Set:
  @DF-RHF Final Energy:  -266.95279975463927
    Total Energy =                       -266.9527997546395000
  Basis Set: CC-PVTZ
  Basis Set:
  Basis Set: CC-PVTZ
  Basis Set:
  @DF-RHF Final Energy:  -266.95278753996570
    Total Energy =                       -266.9527875399658114
  Basis Set: CC-PVTZ
  Basis Set:
  Charge       = 0
  Multiplicity = 1
  Basis Set: CC-PVTZ
  Basis Set:

    Orbital Energies (a.u.)
    -----------------------

    Doubly Occupied:

       1A    -20.605884     2A    -20.540897     3A    -11.374541
       4A    -11.242736     5A    -11.219717     6A     -1.478957
       7A     -1.370162     8A     -1.066361     9A     -0.918265
      10A     -0.805386    11A     -0.706332    12A     -0.693326
      13A     -0.662797    14A     -0.600945    15A     -0.596591
      16A     -0.534058    17A     -0.526804    18A     -0.507273
      19A     -0.484028    20A     -0.448329

  @DF-RHF Final Energy:  -266.95280615176034

   => Energetics <=

    Nuclear Repulsion Energy =            180.1319630569219328
    One-Electron Energy =                -721.4027583211332058
    Two-Electron Energy =                 274.3179891124510164
    DFT Exchange-Correlation Energy =       0.0000000000000000
    Empirical Dispersion Energy =           0.0000000000000000
    PCM Polarization Energy =               0.0000000000000000
    EFP Energy =                            0.0000000000000000
    Total Energy =                       -266.9528061517602850
    Molecular point group: c1
  Basis Set: CC-PVTZ
  Basis Set:

  -Total Gradient:
     Atom            X                  Y                   Z
    ------   -----------------  -----------------  -----------------
       1       -0.000005659322     0.000005381542     0.000002490200
       2       -0.000132351795     0.000269818995     0.000945666872
       3        0.000137789409    -0.000180782743    -0.001454193318
       4        0.000569697264    -0.000864197767     0.001093087647
       5       -0.000017336989    -0.000051085652     0.000043099778
       6        0.000014345440    -0.000027226339     0.000016307020
       7       -0.000516517053     0.000809129085    -0.000633354207
       8       -0.000019007809     0.000013774822    -0.000015781742
       9       -0.000000113450    -0.000005229179    -0.000000133652
      10       -0.000012797522     0.000013161295    -0.000004718974
      11       -0.000018048169     0.000017255939     0.000007530376

  **** Optimization is complete! (in 5 steps) ****
    Final optimized geometry and variables:
    Molecular point group: c1

    Geometry (in Angstrom), charge = 0, multiplicity = 1:

    H            2.303022551998    -0.034696458266     0.385910986867
    O            1.543236168276    -0.594234213185     0.446946091881
    C            0.492303598902     0.072188947079    -0.020089868058
    C           -0.760442471112    -0.763303270251    -0.009413902243
    O            0.573732997340     1.187144802442    -0.405349881054
    C           -2.033330346256     0.070390077259    -0.042692839987
    H           -0.704593432805    -1.399709421918    -0.887836642837
    H           -0.729300785397    -1.418951242999     0.850341551788
    H           -2.052882183477     0.711617479058    -0.912425783940
    H           -2.900574942853    -0.577414956343    -0.071323662723
    H           -2.110308407393     0.700090540243     0.834804169630

  Mulliken Charges: (a.u.)
   Center  Symbol    Alpha    Beta     Spin     Total
       1     H     0.38109  0.38109  0.00000  0.23782
       2     O     4.15993  4.15993  0.00000 -0.31987
       3     C     2.80435  2.80435  0.00000  0.39130
       4     C     3.09778  3.09778  0.00000 -0.19556
       5     O     4.19235  4.19235  0.00000 -0.38471
       6     C     3.14023  3.14023  0.00000 -0.28047
       7     H     0.44284  0.44284  0.00000  0.11432
       8     H     0.43710  0.43710  0.00000  0.12580
       9     H     0.44370  0.44370  0.00000  0.11259
      10     H     0.44948  0.44948  0.00000  0.10104
      11     H     0.45113  0.45113  0.00000  0.09773

   Total alpha = 20.00000, Total beta = 20.00000, Total charge = -0.00000
