  ==> Input File <==

--------------------------------------------------------------------------
set {
	reference rhf
	basis 6-31G*
}

set_num_threads( 4 )
memory 2 gb

molecule MOL {
0 1

H	 -2.698709	 -0.000305	 0.034435
C	 -1.693833	 0.000034	 0.434417
O	 -0.828952	 -0.000968	 -0.659236
H	 -1.574200	 0.882896	 1.055746
H	 -1.574147	 -0.881698	 1.057355
C	 0.559449	 -0.000018	 -0.420814
C	 1.003005	 -1.167277	 0.458777
C	 1.374584	 0.098860	 -1.708733
H	 0.712457	 0.914575	 0.139667
H	 0.371191	 -1.237307	 1.337671
H	 2.026826	 -1.016824	 0.786482
H	 0.965200	 -2.115917	 -0.067358
H	 0.999520	 0.904669	 -2.330390
H	 2.414426	 0.305004	 -1.474855
H	 1.346144	 -0.820510	 -2.284747

	symmetry c1
}
set optking {
	frozen_dihedral = ("
		9 6 3 2
	")
}

ee = optimize('scf')
oeprop('DIPOLE', 'QUADRUPOLE', 'MULLIKEN_CHARGES')
f=open( 'psi4out.xyz', 'w' )
f.write( "15  " )
f.write( str(ee) + "\n" )
f.write( MOL.save_string_xyz() )
f.close()
--------------------------------------------------------------------------

    Molecular point group: c1
  Charge       = 0
  Multiplicity = 1
  Basis Set: 6-31G*
  Basis Set:
  @DF-RHF Final Energy:  -232.13521352607103
    Total Energy =                       -232.1352135260711407
    Molecular point group: c1
  Basis Set: 6-31G*
  Basis Set:
  Basis Set: 6-31G*
  Basis Set:
  @DF-RHF Final Energy:  -232.13959970764088
    Total Energy =                       -232.1395997076408548
  Basis Set: 6-31G*
  Basis Set:
  Basis Set: 6-31G*
  Basis Set:
  @DF-RHF Final Energy:  -232.14092084638634
    Total Energy =                       -232.1409208463863365
  Basis Set: 6-31G*
  Basis Set:
  Basis Set: 6-31G*
  Basis Set:
  @DF-RHF Final Energy:  -232.14095619189661
    Total Energy =                       -232.1409561918965210
  Basis Set: 6-31G*
  Basis Set:
  Basis Set: 6-31G*
  Basis Set:
  @DF-RHF Final Energy:  -232.14097128529676
    Total Energy =                       -232.1409712852968141
  Basis Set: 6-31G*
  Basis Set:
  Basis Set: 6-31G*
  Basis Set:
  @DF-RHF Final Energy:  -232.14097384164668
    Total Energy =                       -232.1409738416464847
  Basis Set: 6-31G*
  Basis Set:
  Charge       = 0
  Multiplicity = 1
  Basis Set: 6-31G*
  Basis Set:

    Orbital Energies (a.u.)
    -----------------------

    Doubly Occupied:

       1A    -20.550324     2A    -11.274516     3A    -11.262572
       4A    -11.210792     5A    -11.205623     6A     -1.374525
       7A     -1.052405     8A     -0.944785     9A     -0.913807
      10A     -0.790840    11A     -0.674309    12A     -0.639008
      13A     -0.634485    14A     -0.591599    15A     -0.550338
      16A     -0.542411    17A     -0.526520    18A     -0.497362
      19A     -0.493120    20A     -0.451862    21A     -0.408953

  @DF-RHF Final Energy:  -232.14097415487640

   => Energetics <=

    Nuclear Repulsion Energy =            197.7307297326199773
    One-Electron Energy =                -706.5630950272920927
    Two-Electron Energy =                 276.6913911397958827
    DFT Exchange-Correlation Energy =       0.0000000000000000
    Empirical Dispersion Energy =           0.0000000000000000
    PCM Polarization Energy =               0.0000000000000000
    EFP Energy =                            0.0000000000000000
    Total Energy =                       -232.1409741548762327
    Molecular point group: c1
  Basis Set: 6-31G*
  Basis Set:

  -Total Gradient:
     Atom            X                  Y                   Z
    ------   -----------------  -----------------  -----------------
       1       -0.000010539106    -0.000004469443    -0.000006666667
       2        0.000072648396    -0.001589916102     0.000074227925
       3       -0.000027839145     0.002523557336    -0.000495679078
       4        0.000001068672    -0.000002877490     0.000011519411
       5        0.000032482476    -0.000005244725    -0.000021809381
       6       -0.000428664599    -0.001844381526     0.002194303768
       7       -0.000054445265    -0.000025832915     0.000009102296
       8       -0.000001927401     0.000022091319    -0.000038997084
       9        0.000401150821     0.000919852677    -0.001698681921
      10       -0.000007329477    -0.000015792256     0.000011666449
      11       -0.000017837943     0.000021766991    -0.000016431053
      12        0.000006243592    -0.000009684245     0.000003255514
      13        0.000012539087    -0.000021668978    -0.000026767210
      14        0.000019343119     0.000013972041    -0.000016063933
      15        0.000003106772     0.000018627318     0.000017020967

  **** Optimization is complete! (in 7 steps) ****
    Final optimized geometry and variables:
    Molecular point group: c1

    Geometry (in Angstrom), charge = 0, multiplicity = 1:

    H           -2.754928933535     0.313715999557     0.289088918344
    C           -1.772016025616     0.177915751782     0.720027182249
    O           -0.859245766298     0.171158430930    -0.331753953478
    H           -1.579673642235     0.996322563973     1.412205788037
    H           -1.766204534974    -0.754444355028     1.276641849040
    C            0.501770607628     0.255912852377     0.008722138246
    C            0.972681584659    -0.914991664165     0.867535100784
    C            1.258506130643     0.325528982395    -1.309366840208
    H            0.667693179024     1.188736504154     0.549574420927
    H            0.498817909323    -0.926707201562     1.842786662521
    H            2.044337288844    -0.852523460933     1.027267016871
    H            0.754905343428    -1.855540799240     0.370906098499
    H            0.891982351139     1.151637106174    -1.907432948936
    H            2.321185839468     0.465851178804    -1.138559540165
    H            1.116963740940    -0.590347741905    -1.873580759676

  Mulliken Charges: (a.u.)
   Center  Symbol    Alpha    Beta     Spin     Total
       1     H     0.41257  0.41257  0.00000  0.17486
       2     C     3.07951  3.07951  0.00000 -0.15901
       3     O     4.30990  4.30990  0.00000 -0.61981
       4     H     0.43210  0.43210  0.00000  0.13581
       5     H     0.42769  0.42769  0.00000  0.14463
       6     C     2.90976  2.90976  0.00000  0.18048
       7     C     3.25411  3.25411  0.00000 -0.50821
       8     C     3.24003  3.24003  0.00000 -0.48006
       9     H     0.43118  0.43118  0.00000  0.13764
      10     H     0.41807  0.41807  0.00000  0.16385
      11     H     0.41884  0.41884  0.00000  0.16232
      12     H     0.41462  0.41462  0.00000  0.17077
      13     H     0.41189  0.41189  0.00000  0.17623
      14     H     0.42377  0.42377  0.00000  0.15246
      15     H     0.41597  0.41597  0.00000  0.16806

   Total alpha = 21.00000, Total beta = 21.00000, Total charge =  0.00000
