                              Psi4 1.0.54 Driver

  ==> Input File <==

--------------------------------------------------------------------------
set {
	reference rhf
	basis cc-pvtz
}

set_num_threads( 4 )
memory 2 gb

molecule MOL {
0 1

O	 -1.278239	 1.034789	 -0.784693
C	 -1.204115	 0.062668	 -0.112312
C	 -2.386398	 -0.667698	 0.460323
O	 -0.068058	 -0.518372	 0.226882
H	 -2.382952	 -1.693172	 0.114333
H	 -3.296656	 -0.175702	 0.158400
H	 -2.312537	 -0.685191	 1.540100
C	 1.169086	 0.037484	 -0.230612
C	 2.261501	 -0.878796	 0.283366
C	 1.308350	 1.464884	 0.267126
H	 1.156595	 0.030438	 -1.309909
H	 2.122993	 -1.885695	 -0.089084
H	 3.230158	 -0.522153	 -0.045605
H	 2.257734	 -0.911137	 1.366360
H	 2.250195	 1.883220	 -0.068169
H	 0.508810	 2.084367	 -0.114484
H	 1.288647	 1.492983	 1.350688

	symmetry c1
}
set optking {
	frozen_dihedral = ("
		11 8 4 2
	")
}

ee,wfn = optimize('scf', return_wfn=True)
oeprop( wfn, 'DIPOLE', 'QUADRUPOLE', 'MULLIKEN_CHARGES')
f=open( 'psi4out.xyz', 'w' )
f.write( "17  " )
f.write( str(ee) + "\n" )
f.write( MOL.save_string_xyz() )
f.close()
--------------------------------------------------------------------------

    Molecular point group: c1
  Charge       = 0
  Multiplicity = 1
  Basis Set: CC-PVTZ
  Basis Set:
  @DF-RHF Final Energy:  -345.03895532201881
    Total Energy =                       -345.0389553220189782
    Molecular point group: c1
  Basis Set: CC-PVTZ
  Basis Set:
  Basis Set: CC-PVTZ
  Basis Set:
  @DF-RHF Final Energy:  -345.04108393131423
    Total Energy =                       -345.0410839313144038
  Basis Set: CC-PVTZ
  Basis Set:
  Basis Set: CC-PVTZ
  Basis Set:
  @DF-RHF Final Energy:  -345.03824774725490
    Total Energy =                       -345.0382477472550136
  Basis Set: CC-PVTZ
  Basis Set:
  Basis Set: CC-PVTZ
  Basis Set:
  @DF-RHF Final Energy:  -345.04124377751390
    Total Energy =                       -345.0412437775140120
  Basis Set: CC-PVTZ
  Basis Set:
  Basis Set: CC-PVTZ
  Basis Set:
  @DF-RHF Final Energy:  -345.04101282920521
    Total Energy =                       -345.0410128292051581
  Basis Set: CC-PVTZ
  Basis Set:
  Basis Set: CC-PVTZ
  Basis Set:
  @DF-RHF Final Energy:  -345.04135275416206
    Total Energy =                       -345.0413527541621193
  Basis Set: CC-PVTZ
  Basis Set:
  Basis Set: CC-PVTZ
  Basis Set:
  @DF-RHF Final Energy:  -345.04135616703917
    Total Energy =                       -345.0413561670392255
  Basis Set: CC-PVTZ
  Basis Set:
  Charge       = 0
  Multiplicity = 1
  Basis Set: CC-PVTZ
  Basis Set:

    Orbital Energies (a.u.)
    -----------------------

    Doubly Occupied:

       1A    -20.591186     2A    -20.531264     3A    -11.366537
       4A    -11.290797     5A    -11.230236     6A    -11.217241
       7A    -11.212218     8A     -1.467755     9A     -1.364653
      10A     -1.079995    11A     -1.005419    12A     -0.947811
      13A     -0.852840    14A     -0.760927    15A     -0.694433
      16A     -0.677512    17A     -0.661404    18A     -0.616448
      19A     -0.586531    20A     -0.579055    21A     -0.557499
      22A     -0.549922    23A     -0.540520    24A     -0.520754
      25A     -0.503397    26A     -0.483928    27A     -0.451805
      28A     -0.436688

  @DF-RHF Final Energy:  -345.04135680147209

   => Energetics <=

    Nuclear Repulsion Energy =            324.3355846903138513
    One-Electron Energy =               -1113.1963289085870201
    Two-Electron Energy =                 443.8193874168010780
    DFT Exchange-Correlation Energy =       0.0000000000000000
    Empirical Dispersion Energy =           0.0000000000000000
    PCM Polarization Energy =               0.0000000000000000
    EFP Energy =                            0.0000000000000000
    Total Energy =                       -345.0413568014720340
    Molecular point group: c1
  Basis Set: CC-PVTZ
  Basis Set:

  -Total Gradient:
     Atom            X                  Y                   Z
    ------   -----------------  -----------------  -----------------
       1       -0.000040965178    -0.000020670065     0.000004517240
       2       -0.000260434664     0.002689054632     0.003464199455
       3       -0.000010939337     0.000088940470     0.000041401446
       4        0.001127328606    -0.004864460713    -0.005076161087
       5       -0.000002998302    -0.000012883163    -0.000039333587
       6        0.000003801728    -0.000011306874    -0.000005827425
       7        0.000011781931    -0.000026879172     0.000013279585
       8       -0.003632214341     0.006204931636     0.001329434720
       9       -0.000005696753    -0.000007041653     0.000000574506
      10       -0.000014291424    -0.000012710160     0.000000259105
      11        0.002838282206    -0.003997638298     0.000254508285
      12       -0.000002849927     0.000021670402     0.000004876068
      13       -0.000008621748    -0.000004224524     0.000002923233
      14        0.000004231851    -0.000003075035    -0.000000856404
      15       -0.000015551143    -0.000029234751     0.000001668335
      16        0.000010847183    -0.000014714848     0.000006183400
      17       -0.000001710685     0.000000242117    -0.000001646875

  **** Optimization is complete! (in 8 steps) ****
    Final optimized geometry and variables:
    Molecular point group: c1

    Geometry (in Angstrom), charge = 0, multiplicity = 1:

    O           -1.441747290157     0.562836727957    -0.941420701224
    C           -1.166176791942    -0.254325491955    -0.130045993145
    C           -2.173284736233    -1.092131967838     0.607401967883
    O            0.067124137673    -0.561518992607     0.226410260330
    H           -1.969950750472    -2.141028497408     0.434896521685
    H           -3.166441042158    -0.844803551168     0.269398717637
    H           -2.085737268544    -0.911379659671     1.671121983098
    C            1.177392269491     0.202535976640    -0.257762450543
    C            2.406812804724    -0.519686839567     0.264074547603
    C            1.126581687170     1.648255129913     0.202647430061
    H            1.176368859349     0.134768400363    -1.337602469944
    H            2.408276807035    -1.552283966538    -0.060081535857
    H            3.304417765190    -0.041542458026    -0.108753131774
    H            2.432042554257    -0.501413395378     1.347104992473
    H            2.027455173093     2.155974292226    -0.121168891566
    H            0.275750517683     2.169613409120    -0.204647539628
    H            1.085949732463     1.693989846720     1.285624817554

  Mulliken Charges: (a.u.)
   Center  Symbol    Alpha    Beta     Spin     Total
       1     O     4.19957  4.19957  0.00000 -0.39914
       2     C     2.80650  2.80650  0.00000  0.38700
       3     C     3.13806  3.13806  0.00000 -0.27612
       4     O     4.16160  4.16160  0.00000 -0.32319
       5     H     0.44524  0.44524  0.00000  0.10952
       6     H     0.43842  0.43842  0.00000  0.12316
       7     H     0.44693  0.44693  0.00000  0.10615
       8     C     2.92790  2.92790  0.00000  0.14419
       9     C     3.13909  3.13909  0.00000 -0.27818
      10     C     3.16210  3.16210  0.00000 -0.32419
      11     H     0.44705  0.44705  0.00000  0.10590
      12     H     0.44638  0.44638  0.00000  0.10723
      13     H     0.45475  0.45475  0.00000  0.09050
      14     H     0.45278  0.45278  0.00000  0.09445
      15     H     0.44916  0.44916  0.00000  0.10168
      16     H     0.43044  0.43044  0.00000  0.13913
      17     H     0.45404  0.45404  0.00000  0.09191

   Total alpha = 28.00000, Total beta = 28.00000, Total charge = -0.00000

*** Psi4 exiting successfully. Buy a developer a beer!
