  ==> Input File <==

--------------------------------------------------------------------------
set {
	reference rhf
	basis 6-31G*
}

set_num_threads( 4 )
memory 2 gb

molecule MOL {
0 1

H	 3.729471	 -0.928294	 -0.070608
O	 2.826016	 -1.159218	 0.122261
C	 2.077727	 -0.067559	 -0.035091
C	 0.624473	 -0.343591	 0.253101
O	 2.542965	 0.974826	 -0.363729
C	 -0.265902	 0.883932	 0.072916
H	 0.324016	 -1.163849	 -0.390541
H	 0.565024	 -0.726111	 1.268924
C	 -1.728698	 0.646073	 0.462102
H	 -0.209144	 1.219470	 -0.958188
H	 0.135059	 1.692851	 0.673903
C	 -2.641627	 0.214300	 -0.689023
H	 -2.118913	 1.568305	 0.886346
H	 -1.777008	 -0.095736	 1.258056
C	 -4.104955	 0.093315	 -0.264153
H	 -2.559767	 0.934661	 -1.500455
H	 -2.312039	 -0.739788	 -1.092099
H	 -4.731426	 -0.215104	 -1.095252
H	 -4.485887	 1.041668	 0.103740
H	 -4.223348	 -0.639591	 0.528985

	symmetry c1
}
set optking {
	frozen_dihedral = ("
		12 9 6 10
	")
}

ee = optimize('scf')
oeprop('DIPOLE', 'QUADRUPOLE', 'MULLIKEN_CHARGES')
f=open( 'psi4out.xyz', 'w' )
f.write( "20  " )
f.write( str(ee) + "\n" )
f.write( MOL.save_string_xyz() )
f.close()
--------------------------------------------------------------------------

    Molecular point group: c1
  Charge       = 0
  Multiplicity = 1
  Basis Set: 6-31G*
  Basis Set:
  @DF-RHF Final Energy:  -383.94648035387496
    Total Energy =                       -383.9464803538747333
    Molecular point group: c1
  Basis Set: 6-31G*
  Basis Set:
  Basis Set: 6-31G*
  Basis Set:
  @DF-RHF Final Energy:  -383.94701727210924
    Total Energy =                       -383.9470172721090648
  Basis Set: 6-31G*
  Basis Set:
  Basis Set: 6-31G*
  Basis Set:
  @DF-RHF Final Energy:  -383.94688227381084
    Total Energy =                       -383.9468822738108429
  Basis Set: 6-31G*
  Basis Set:
  Basis Set: 6-31G*
  Basis Set:
  @DF-RHF Final Energy:  -383.94703346774884
    Total Energy =                       -383.9470334677486107
  Basis Set: 6-31G*
  Basis Set:
  Basis Set: 6-31G*
  Basis Set:
  @DF-RHF Final Energy:  -383.94707966843345
    Total Energy =                       -383.9470796684333891
  Basis Set: 6-31G*
  Basis Set:
  Basis Set: 6-31G*
  Basis Set:
  @DF-RHF Final Energy:  -383.94707841233782
    Total Energy =                       -383.9470784123376461
  Basis Set: 6-31G*
  Basis Set:
  Basis Set: 6-31G*
  Basis Set:
  @DF-RHF Final Energy:  -383.94708551794912
    Total Energy =                       -383.9470855179486080
  Basis Set: 6-31G*
  Basis Set:
  Charge       = 0
  Multiplicity = 1
  Basis Set: 6-31G*
  Basis Set:

    Orbital Energies (a.u.)
    -----------------------

    Doubly Occupied:

       1A    -20.612508     2A    -20.551634     3A    -11.380997
       4A    -11.240469     5A    -11.222843     6A    -11.220447
       7A    -11.219858     8A    -11.211961     9A     -1.474536
      10A     -1.365599    11A     -1.095496    12A     -1.041459
      13A     -0.959565    14A     -0.868720    15A     -0.811049
      16A     -0.783619    17A     -0.699466    18A     -0.689741
      19A     -0.663202    20A     -0.634203    21A     -0.605370
      22A     -0.592904    23A     -0.572753    24A     -0.556593
      25A     -0.541121    26A     -0.506747    27A     -0.497939
      28A     -0.479173    29A     -0.473064    30A     -0.467345
      31A     -0.456735    32A     -0.442655

  @DF-RHF Final Energy:  -383.94708563416464

   => Energetics <=

    Nuclear Repulsion Energy =            374.9286893408288961
    One-Electron Energy =               -1265.8720091444579339
    Two-Electron Energy =                 506.9962341694644579
    DFT Exchange-Correlation Energy =       0.0000000000000000
    Empirical Dispersion Energy =           0.0000000000000000
    PCM Polarization Energy =               0.0000000000000000
    EFP Energy =                            0.0000000000000000
    Total Energy =                       -383.9470856341645799
    Molecular point group: c1
  Basis Set: 6-31G*
  Basis Set:

  -Total Gradient:
     Atom            X                  Y                   Z
    ------   -----------------  -----------------  -----------------
       1        0.000003171338    -0.000000949531     0.000002448863
       2       -0.000000375201    -0.000002282408    -0.000015068134
       3       -0.000002726472     0.000009775131     0.000012786652
       4       -0.000013788394    -0.000012503919    -0.000029837599
       5        0.000001749762    -0.000003407394     0.000007551353
       6       -0.000536067327     0.004822297652     0.000942470873
       7       -0.000004624490    -0.000000365303     0.000014823307
       8        0.000008591765     0.000006476233     0.000011454573
       9        0.000752011022    -0.003960881460     0.000526256865
      10        0.000271392986    -0.003134619842    -0.000941438166
      11       -0.000001580025    -0.000009709949    -0.000003797062
      12       -0.000488494663     0.002288463577    -0.000532308814
      13       -0.000002745744    -0.000004705841    -0.000002108288
      14        0.000000534322    -0.000000429735     0.000005753028
      15        0.000003919530     0.000000099544     0.000004120887
      16        0.000007573069     0.000000577041     0.000000511908
      17        0.000000580212    -0.000002185355    -0.000003318115
      18        0.000003448459    -0.000003293683    -0.000000043446
      19       -0.000003697083     0.000002590482    -0.000004245046
      20        0.000001126929     0.000005054763     0.000003986362

  **** Optimization is complete! (in 8 steps) ****
    Final optimized geometry and variables:
    Molecular point group: c1

    Geometry (in Angstrom), charge = 0, multiplicity = 1:

    H            3.685336053314    -1.181996340574    -0.110008075303
    O            2.789895330907    -1.356202460247     0.163135935649
    C            2.079146164052    -0.242994316414    -0.015352555713
    C            0.641189633436    -0.427918310861     0.395070233094
    O            2.562399445925     0.752367305006    -0.447752316735
    C           -0.208473051371     0.829231314411     0.211511116543
    H            0.247737167603    -1.262901339596    -0.178039324958
    H            0.641326403537    -0.754756561915     1.431275600433
    C           -1.685076623450     0.594303061668     0.572073277489
    H           -0.127068294488     1.142562993569    -0.823936039362
    H            0.210418945714     1.626402526954     0.814370887291
    C           -2.541398387172     0.136239515123    -0.611888308134
    H           -2.107934371775     1.519302497894     0.956386604975
    H           -1.761466146530    -0.127442938342     1.383044452792
    C           -3.996482466420    -0.126857399045    -0.226967720065
    H           -2.503672339089     0.896700759283    -1.388035034482
    H           -2.118195364423    -0.766061122939    -1.049410646909
    H           -4.581474835625    -0.434985895074    -1.087873393684
    H           -4.459534676697     0.765133149567     0.185542122461
    H           -4.069248156998    -0.911705098233     0.520627901948

  Mulliken Charges: (a.u.)
   Center  Symbol    Alpha    Beta     Spin     Total
       1     H     0.26788  0.26788  0.00000  0.46423
       2     O     4.35142  4.35142  0.00000 -0.70284
       3     C     2.62292  2.62292  0.00000  0.75416
       4     C     3.21230  3.21230  0.00000 -0.42461
       5     O     4.27938  4.27938  0.00000 -0.55877
       6     C     3.15543  3.15543  0.00000 -0.31086
       7     H     0.39832  0.39832  0.00000  0.20336
       8     H     0.39851  0.39851  0.00000  0.20298
       9     C     3.15737  3.15737  0.00000 -0.31473
      10     H     0.40927  0.40927  0.00000  0.18145
      11     H     0.40875  0.40875  0.00000  0.18250
      12     C     3.15315  3.15315  0.00000 -0.30630
      13     H     0.41778  0.41778  0.00000  0.16444
      14     H     0.42305  0.42305  0.00000  0.15391
      15     C     3.23979  3.23979  0.00000 -0.47958
      16     H     0.41978  0.41978  0.00000  0.16044
      17     H     0.42430  0.42430  0.00000  0.15140
      18     H     0.41823  0.41823  0.00000  0.16355
      19     H     0.42082  0.42082  0.00000  0.15836
      20     H     0.42154  0.42154  0.00000  0.15692

   Total alpha = 32.00000, Total beta = 32.00000, Total charge =  0.00000
