                              Psi4 1.0.54 Driver

  ==> Input File <==

--------------------------------------------------------------------------
set {
	reference rhf
	basis cc-pvtz
}

set_num_threads( 4 )
memory 2 gb

molecule MOL {
0 1

H	 1.388821	 0.775378	 0.893838
C	 0.848385	 0.440008	 0.000011
C	 -0.623497	 0.751021	 0.000090
O	 1.424667	 -0.118302	 -0.867994
C	 -1.523725	 -0.474323	 -0.000013
H	 -0.813143	 1.382932	 -0.864897
H	 -0.813071	 1.382716	 0.865253
H	 -1.342980	 -1.087348	 -0.873016
H	 -2.565269	 -0.177464	 0.000070
H	 -1.342898	 -1.087564	 0.872820

	symmetry c1
}
set optking {
	frozen_dihedral = ("
		4 2 3 6
	")
}

ee,wfn = optimize('scf', return_wfn=True)
oeprop( wfn, 'DIPOLE', 'QUADRUPOLE', 'MULLIKEN_CHARGES')
f=open( 'psi4out.xyz', 'w' )
f.write( "10  " )
f.write( str(ee) + "\n" )
f.write( MOL.save_string_xyz() )
f.close()
--------------------------------------------------------------------------

    Molecular point group: c1
  Charge       = 0
  Multiplicity = 1
  Basis Set: CC-PVTZ
  Basis Set:
  @DF-RHF Final Energy:  -192.02063152000790
    Total Energy =                       -192.0206315200078961
    Molecular point group: c1
  Basis Set: CC-PVTZ
  Basis Set:
  Basis Set: CC-PVTZ
  Basis Set:
  @DF-RHF Final Energy:  -192.02141040443917
    Total Energy =                       -192.0214104044391661
  Basis Set: CC-PVTZ
  Basis Set:
  Basis Set: CC-PVTZ
  Basis Set:
  @DF-RHF Final Energy:  -192.02145296905599
    Total Energy =                       -192.0214529690559857
  Basis Set: CC-PVTZ
  Basis Set:
  Basis Set: CC-PVTZ
  Basis Set:
  @DF-RHF Final Energy:  -192.02135104420074
    Total Energy =                       -192.0213510442006282
  Basis Set: CC-PVTZ
  Basis Set:
  Basis Set: CC-PVTZ
  Basis Set:
  @DF-RHF Final Energy:  -192.02146131762652
    Total Energy =                       -192.0214613176265743
  Basis Set: CC-PVTZ
  Basis Set:
  Charge       = 0
  Multiplicity = 1
  Basis Set: CC-PVTZ
  Basis Set:

    Orbital Energies (a.u.)
    -----------------------

    Doubly Occupied:

       1A    -20.553483     2A    -11.323475     3A    -11.237701
       4A    -11.225509     5A     -1.409074     6A     -1.061540
       7A     -0.906324     8A     -0.784012     9A     -0.686168
      10A     -0.642082    11A     -0.612027    12A     -0.569543
      13A     -0.538578    14A     -0.512371    15A     -0.495271
      16A     -0.414492

  @DF-RHF Final Energy:  -192.02146150446796

   => Energetics <=

    Nuclear Repulsion Energy =            118.8089274623039557
    One-Electron Energy =                -495.7174805108087980
    Two-Electron Energy =                 184.8870915440368208
    DFT Exchange-Correlation Energy =       0.0000000000000000
    Empirical Dispersion Energy =           0.0000000000000000
    PCM Polarization Energy =               0.0000000000000000
    EFP Energy =                            0.0000000000000000
    Total Energy =                       -192.0214615044679931
    Molecular point group: c1
  Basis Set: CC-PVTZ
  Basis Set:

  -Total Gradient:
     Atom            X                  Y                   Z
    ------   -----------------  -----------------  -----------------
       1       -0.000001296093    -0.000003851170    -0.000007050657
       2       -0.000080401272    -0.000405330908     0.000189854980
       3        0.000069454498     0.000369686425     0.000132809485
       4        0.000059906590     0.000256905513    -0.000150456071
       5        0.000022181013     0.000045812712    -0.000000491222
       6       -0.000054864438    -0.000245319412    -0.000152816909
       7        0.000002147782    -0.000009288263    -0.000011697975
       8       -0.000002107254     0.000001042440     0.000000136342
       9       -0.000013142826    -0.000008427312     0.000000146814
      10       -0.000001877997    -0.000001230024    -0.000000434790

  **** Optimization is complete! (in 6 steps) ****
    Final optimized geometry and variables:
    Molecular point group: c1

    Geometry (in Angstrom), charge = 0, multiplicity = 1:

    H            1.422332398224     0.641015870922     1.087528963108
    C            0.829793416103     0.303267887150     0.229259845251
    C           -0.640379160262     0.655244174109     0.240019374380
    O            1.348400869917    -0.302674451225    -0.643640196692
    C           -1.524034841044    -0.592828755410     0.207493280599
    H           -0.830141099251     1.260078997601    -0.640337810781
    H           -0.862602159907     1.260648738034     1.110762728636
    H           -1.299901342970    -1.191787529253    -0.664229208853
    H           -2.569651798143    -0.314081904881     0.175348400897
    H           -1.369037648187    -1.206339461279     1.087749708590

  Mulliken Charges: (a.u.)
   Center  Symbol    Alpha    Beta     Spin     Total
       1     H     0.45732  0.45732  0.00000  0.08536
       2     C     2.90867  2.90867  0.00000  0.18266
       3     C     3.08402  3.08402  0.00000 -0.16805
       4     O     4.16800  4.16800  0.00000 -0.33601
       5     C     3.14375  3.14375  0.00000 -0.28750
       6     H     0.44434  0.44434  0.00000  0.11132
       7     H     0.44986  0.44986  0.00000  0.10028
       8     H     0.44193  0.44193  0.00000  0.11614
       9     H     0.44817  0.44817  0.00000  0.10365
      10     H     0.45393  0.45393  0.00000  0.09214

   Total alpha = 16.00000, Total beta = 16.00000, Total charge =  0.00000

*** Psi4 exiting successfully. Buy a developer a beer!
