  ==> Input File <==

--------------------------------------------------------------------------
set {
	reference rhf
	basis 6-31G*
}

set_num_threads( 4 )
memory 2 gb

molecule MOL {
0 1

O	 0.749854	 1.307668	 -0.000040
C	 0.576249	 0.131685	 -0.000108
C	 -0.766779	 -0.556801	 -0.000461
O	 1.568443	 -0.749345	 -0.000005
C	 -1.945214	 0.412366	 0.000161
H	 -0.796911	 -1.211249	 -0.867467
H	 -0.796854	 -1.212390	 0.865687
C	 -2.440460	 0.714143	 -1.413427
H	 -1.651711	 1.332531	 0.493876
H	 -2.751605	 -0.005021	 0.593537
H	 -1.658298	 1.162931	 -2.019450
H	 -3.277206	 1.404624	 -1.391159
H	 -2.771425	 -0.189228	 -1.918258
C	 2.886820	 -0.232538	 0.000322
H	 3.059106	 0.369571	 -0.880203
H	 3.540187	 -1.091012	 0.000050
H	 3.059019	 0.368956	 0.881266

	symmetry c1
}
set optking {
	frozen_dihedral = ("
		9 5 3 6
	")
}

ee = optimize('scf')
oeprop('DIPOLE', 'QUADRUPOLE', 'MULLIKEN_CHARGES')
f=open( 'psi4out.xyz', 'w' )
f.write( "17  " )
f.write( str(ee) + "\n" )
f.write( MOL.save_string_xyz() )
f.close()
--------------------------------------------------------------------------

    Molecular point group: c1
  Charge       = 0
  Multiplicity = 1
  Basis Set: 6-31G*
  Basis Set:
  @DF-RHF Final Energy:  -344.90416626129291
    Total Energy =                       -344.9041662612928008
    Molecular point group: c1
  Basis Set: 6-31G*
  Basis Set:
  Basis Set: 6-31G*
  Basis Set:
  @DF-RHF Final Energy:  -344.90452850752467
    Total Energy =                       -344.9045285075249012
  Basis Set: 6-31G*
  Basis Set:
  Basis Set: 6-31G*
  Basis Set:
  @DF-RHF Final Energy:  -344.90458144794371
    Total Energy =                       -344.9045814479437126
  Basis Set: 6-31G*
  Basis Set:
  Basis Set: 6-31G*
  Basis Set:
  @DF-RHF Final Energy:  -344.90459137549419
    Total Energy =                       -344.9045913754936237
  Basis Set: 6-31G*
  Basis Set:
  Basis Set: 6-31G*
  Basis Set:
  @DF-RHF Final Energy:  -344.90459938101822
    Total Energy =                       -344.9045993810184427
  Basis Set: 6-31G*
  Basis Set:
  Basis Set: 6-31G*
  Basis Set:
  @DF-RHF Final Energy:  -344.90460204054085
    Total Energy =                       -344.9046020405407944
  Basis Set: 6-31G*
  Basis Set:
  Charge       = 0
  Multiplicity = 1
  Basis Set: 6-31G*
  Basis Set:

    Orbital Energies (a.u.)
    -----------------------

    Doubly Occupied:

       1A    -20.604623     2A    -20.546810     3A    -11.373353
       4A    -11.281563     5A    -11.236077     6A    -11.220772
       7A    -11.209664     8A     -1.470517     9A     -1.363868
      10A     -1.078401    11A     -1.000149    12A     -0.937959
      13A     -0.828432    14A     -0.766271    15A     -0.701931
      16A     -0.682105    17A     -0.672433    18A     -0.620382
      19A     -0.612639    20A     -0.568548    21A     -0.566837
      22A     -0.533315    23A     -0.524035    24A     -0.486831
      25A     -0.482509    26A     -0.480996    27A     -0.457346
      28A     -0.438859

  @DF-RHF Final Energy:  -344.90460267012139

   => Energetics <=

    Nuclear Repulsion Energy =            316.4589259198774585
    One-Electron Energy =               -1097.2326117347761283
    Two-Electron Energy =                 435.8690831447773348
    DFT Exchange-Correlation Energy =       0.0000000000000000
    Empirical Dispersion Energy =           0.0000000000000000
    PCM Polarization Energy =               0.0000000000000000
    EFP Energy =                            0.0000000000000000
    Total Energy =                       -344.9046026701213918
    Molecular point group: c1
  Basis Set: 6-31G*
  Basis Set:

  -Total Gradient:
     Atom            X                  Y                   Z
    ------   -----------------  -----------------  -----------------
       1        0.000013568234    -0.000029723038     0.000035797638
       2       -0.000004842410     0.000054290472     0.000001301957
       3       -0.002390365535    -0.002928165274     0.001662748134
       4        0.000011981036    -0.000009658501    -0.000036715329
       5       -0.000934020276    -0.001095872557     0.003589818841
       6        0.002119372111     0.002563985959    -0.001936926614
       7       -0.000000588596     0.000012492937     0.000036169727
       8       -0.000024977446     0.000009937239    -0.000002757152
       9        0.001219250571     0.001411638132    -0.003333158293
      10       -0.000010350027     0.000010242531    -0.000003221357
      11       -0.000000366217     0.000004780983     0.000000238268
      12       -0.000002411915    -0.000000820046    -0.000010974959
      13        0.000006722475    -0.000003541987    -0.000001700007
      14       -0.000010670486    -0.000002212892    -0.000005253425
      15        0.000004068907     0.000000951486     0.000001213943
      16        0.000003886610     0.000001081846     0.000001813675
      17       -0.000000257040     0.000000592708     0.000001604953

  **** Optimization is complete! (in 7 steps) ****
    Final optimized geometry and variables:
    Molecular point group: c1

    Geometry (in Angstrom), charge = 0, multiplicity = 1:

    O            0.618320737925     1.155108072743     0.171558576217
    C            0.446645689887    -0.020777502401     0.210024158038
    C           -0.893495342797    -0.721805758930     0.242017086195
    O            1.441937731915    -0.897918836060     0.223654522517
    C           -2.085252247019     0.241175908007     0.216543532035
    H           -0.900075747502    -1.380886406342    -0.621673878109
    H           -0.899805002439    -1.359642999962     1.119761917776
    C           -2.536215007795     0.582093986671    -1.204900462864
    H           -1.804736077928     1.162371455513     0.711654993745
    H           -2.912517629574    -0.195879621418     0.766294503540
    H           -1.728035995045     1.039504380009    -1.766816586902
    H           -3.365757337001     1.281769113314    -1.191540915409
    H           -2.859941123594    -0.305905537416    -1.741208973317
    C            2.758742597924    -0.377763142559     0.191841051143
    H            2.918660241517     0.196437852398    -0.709372275254
    H            3.414659360510    -1.234091365539     0.211023313582
    H            2.939457941020     0.251782406812     1.051159694601

  Mulliken Charges: (a.u.)
   Center  Symbol    Alpha    Beta     Spin     Total
       1     O     4.28603  4.28603  0.00000 -0.57207
       2     C     2.61060  2.61060  0.00000  0.77880
       3     C     3.20682  3.20682  0.00000 -0.41364
       4     O     4.30587  4.30587  0.00000 -0.61174
       5     C     3.15833  3.15833  0.00000 -0.31666
       6     H     0.39981  0.39981  0.00000  0.20038
       7     H     0.39747  0.39747  0.00000  0.20506
       8     C     3.24343  3.24343  0.00000 -0.48686
       9     H     0.40059  0.40059  0.00000  0.19881
      10     H     0.41815  0.41815  0.00000  0.16370
      11     H     0.41314  0.41314  0.00000  0.17372
      12     H     0.41736  0.41736  0.00000  0.16528
      13     H     0.42387  0.42387  0.00000  0.15227
      14     C     3.09228  3.09228  0.00000 -0.18455
      15     H     0.40902  0.40902  0.00000  0.18195
      16     H     0.40833  0.40833  0.00000  0.18334
      17     H     0.40890  0.40890  0.00000  0.18221

   Total alpha = 28.00000, Total beta = 28.00000, Total charge = -0.00000
