  ==> Input File <==

--------------------------------------------------------------------------
set {
	reference rhf
	basis 6-31G*
}

set_num_threads( 4 )
memory 2 gb

molecule MOL {
0 1

H	 -3.161837	 0.500524	 -0.000234
C	 -2.367097	 -0.232926	 -0.000000
O	 -1.158440	 0.455814	 -0.000122
H	 -2.468853	 -0.861886	 -0.882833
H	 -2.468942	 -0.861421	 0.883154
C	 -0.029776	 -0.365156	 0.000148
C	 1.212217	 0.508981	 0.000007
H	 -0.036772	 -1.013236	 -0.877259
H	 -0.036869	 -1.012778	 0.877897
C	 1.734107	 0.782624	 -1.409827
H	 0.975734	 1.443126	 0.500117
H	 1.977445	 0.020031	 0.595030
H	 0.991025	 1.294163	 -2.015286
H	 2.620236	 1.407715	 -1.380137
H	 1.999236	 -0.139204	 -1.920065

	symmetry c1
}
set optking {
	frozen_dihedral = ("
		11 7 6 8
	")
}

ee = optimize('scf')
oeprop('DIPOLE', 'QUADRUPOLE', 'MULLIKEN_CHARGES')
f=open( 'psi4out.xyz', 'w' )
f.write( "15  " )
f.write( str(ee) + "\n" )
f.write( MOL.save_string_xyz() )
f.close()
--------------------------------------------------------------------------

    Molecular point group: c1
  Charge       = 0
  Multiplicity = 1
  Basis Set: 6-31G*
  Basis Set:
  @DF-RHF Final Energy:  -232.13591785700621
    Total Energy =                       -232.1359178570064046
    Molecular point group: c1
  Basis Set: 6-31G*
  Basis Set:
  Basis Set: 6-31G*
  Basis Set:
  @DF-RHF Final Energy:  -232.13643755879698
    Total Energy =                       -232.1364375587968425
  Basis Set: 6-31G*
  Basis Set:
  Basis Set: 6-31G*
  Basis Set:
  @DF-RHF Final Energy:  -232.13656061623161
    Total Energy =                       -232.1365606162314634
  Basis Set: 6-31G*
  Basis Set:
  Basis Set: 6-31G*
  Basis Set:
  @DF-RHF Final Energy:  -232.13656390181765
    Total Energy =                       -232.1365639018176807
  Basis Set: 6-31G*
  Basis Set:
  Charge       = 0
  Multiplicity = 1
  Basis Set: 6-31G*
  Basis Set:

    Orbital Energies (a.u.)
    -----------------------

    Doubly Occupied:

       1A    -20.552980     2A    -11.266595     3A    -11.263687
       4A    -11.214298     5A    -11.206844     6A     -1.376928
       7A     -1.053604     8A     -0.951407     9A     -0.881238
      10A     -0.804501    11A     -0.668113    12A     -0.661151
      13A     -0.631160    14A     -0.583789    15A     -0.578866
      16A     -0.545727    17A     -0.492721    18A     -0.484125
      19A     -0.483043    20A     -0.460396    21A     -0.412402

  @DF-RHF Final Energy:  -232.13656466537503

   => Energetics <=

    Nuclear Repulsion Energy =            191.7616049660397834
    One-Electron Energy =                -694.6491870816383880
    Two-Electron Energy =                 270.7510174502235145
    DFT Exchange-Correlation Energy =       0.0000000000000000
    Empirical Dispersion Energy =           0.0000000000000000
    PCM Polarization Energy =               0.0000000000000000
    EFP Energy =                            0.0000000000000000
    Total Energy =                       -232.1365646653750900
    Molecular point group: c1
  Basis Set: 6-31G*
  Basis Set:

  -Total Gradient:
     Atom            X                  Y                   Z
    ------   -----------------  -----------------  -----------------
       1       -0.000016959200    -0.000010451879     0.000005607502
       2       -0.000072441083     0.000012987727    -0.000006930590
       3       -0.000018428894    -0.000024479176     0.000001166338
       4       -0.000006111137    -0.000000006148     0.000004997787
       5       -0.000009346835     0.000003403770    -0.000002987527
       6        0.002918305600    -0.003957071449     0.002215049500
       7        0.001154131953    -0.001385267964     0.004683174625
       8       -0.002492292171     0.003491709714    -0.002503981913
       9        0.000001679321     0.000011905372    -0.000022206613
      10       -0.000018392271    -0.000023811864    -0.000059311203
      11       -0.001401816289     0.001896460578    -0.004273203829
      12       -0.000060111185    -0.000014755519    -0.000027297712
      13        0.000001007597    -0.000022250945    -0.000007785008
      14        0.000000333311     0.000002308534     0.000002512613
      15        0.000020441281     0.000019319247    -0.000008803970

  **** Optimization is complete! (in 5 steps) ****
    Final optimized geometry and variables:
    Molecular point group: c1

    Geometry (in Angstrom), charge = 0, multiplicity = 1:

    H           -2.987099493001     0.314802393298     0.221197357235
    C           -2.204220964445    -0.431081492450     0.245319684456
    O           -0.985486248558     0.237471290825     0.287715621594
    H           -2.287179823019    -1.056504900593    -0.642136744460
    H           -2.345753388821    -1.060326291483     1.122650304001
    C            0.132160825999    -0.606873233382     0.330800614038
    C            1.387951441157     0.260316912708     0.293956416099
    H            0.098056214979    -1.266896008691    -0.535714835306
    H            0.097417450290    -1.219406784248     1.230227390917
    C            1.846469183022     0.574346250005    -1.131549160232
    H            1.149788876695     1.194874920955     0.789904429204
    H            2.189848419810    -0.222040825976     0.844681084836
    H            1.046075436536     1.043345634560    -1.694711691849
    H            2.694999087169     1.251436803687    -1.129742339855
    H            2.144201961396    -0.327568840677    -1.659303043769

  Mulliken Charges: (a.u.)
   Center  Symbol    Alpha    Beta     Spin     Total
       1     H     0.41242  0.41242  0.00000  0.17516
       2     C     3.07902  3.07902  0.00000 -0.15803
       3     O     4.30579  4.30579  0.00000 -0.61158
       4     H     0.43069  0.43069  0.00000  0.13861
       5     H     0.43077  0.43077  0.00000  0.13847
       6     C     2.98970  2.98970  0.00000  0.02059
       7     C     3.16197  3.16197  0.00000 -0.32394
       8     H     0.43157  0.43157  0.00000  0.13686
       9     H     0.42901  0.42901  0.00000  0.14198
      10     C     3.24393  3.24393  0.00000 -0.48785
      11     H     0.40738  0.40738  0.00000  0.18524
      12     H     0.42136  0.42136  0.00000  0.15727
      13     H     0.41306  0.41306  0.00000  0.17388
      14     H     0.41938  0.41938  0.00000  0.16124
      15     H     0.42394  0.42394  0.00000  0.15211

   Total alpha = 21.00000, Total beta = 21.00000, Total charge =  0.00000
