                              Psi4 1.0.54 Driver

  ==> Input File <==

--------------------------------------------------------------------------
set {
	reference rhf
	basis cc-pvtz
}

set_num_threads( 4 )
memory 2 gb

molecule MOL {
0 1

H	 2.268462	 -1.590605	 2.661699
O	 1.949680	 -1.549989	 1.772641
C	 1.176184	 -0.474516	 1.652246
C	 0.626018	 -0.337582	 0.258241
O	 0.973127	 0.257685	 2.558056
C	 -0.267326	 0.883135	 0.076490
H	 1.476360	 -0.324565	 -0.413032
H	 0.087735	 -1.254167	 0.037886
C	 -1.726822	 0.642622	 0.463839
H	 -0.210803	 1.217591	 -0.953497
H	 0.129920	 1.693110	 0.675679
C	 -2.480891	 -0.340606	 -0.429852
H	 -2.243098	 1.597649	 0.438609
H	 -1.776542	 0.301208	 1.495542
C	 -3.955933	 -0.460128	 -0.060472
H	 -2.393755	 -0.020485	 -1.464726
H	 -2.024244	 -1.323637	 -0.374360
H	 -4.467673	 -1.160944	 -0.709827
H	 -4.458917	 0.497287	 -0.144505
H	 -4.076458	 -0.806900	 0.960497

	symmetry c1
}
set optking {
	frozen_dihedral = ("
		7 4 6 10
	")
}

ee,wfn = optimize('scf', return_wfn=True)
oeprop( wfn, 'DIPOLE', 'QUADRUPOLE', 'MULLIKEN_CHARGES')
f=open( 'psi4out.xyz', 'w' )
f.write( "20  " )
f.write( str(ee) + "\n" )
f.write( MOL.save_string_xyz() )
f.close()
--------------------------------------------------------------------------

    Molecular point group: c1
  Charge       = 0
  Multiplicity = 1
  Basis Set: CC-PVTZ
  Basis Set:
  @DF-RHF Final Energy:  -384.09281096319097
    Total Energy =                       -384.0928109631904590
    Molecular point group: c1
  Basis Set: CC-PVTZ
  Basis Set:
  Basis Set: CC-PVTZ
  Basis Set:
  @DF-RHF Final Energy:  -384.09262376583365
    Total Energy =                       -384.0926237658338778
  Basis Set: CC-PVTZ
  Basis Set:
  Basis Set: CC-PVTZ
  Basis Set:
  @DF-RHF Final Energy:  -384.09315993390351
    Total Energy =                       -384.0931599339030527
  Basis Set: CC-PVTZ
  Basis Set:
  Basis Set: CC-PVTZ
  Basis Set:
  @DF-RHF Final Energy:  -384.09250748622316
    Total Energy =                       -384.0925074862233259
  Basis Set: CC-PVTZ
  Basis Set:
  Basis Set: CC-PVTZ
  Basis Set:
  @DF-RHF Final Energy:  -384.09323167520080
    Total Energy =                       -384.0932316752003999
  Basis Set: CC-PVTZ
  Basis Set:
  Basis Set: CC-PVTZ
  Basis Set:
  @DF-RHF Final Energy:  -384.09324783443259
    Total Energy =                       -384.0932478344326455
  Basis Set: CC-PVTZ
  Basis Set:
  Basis Set: CC-PVTZ
  Basis Set:
  @DF-RHF Final Energy:  -384.09325825482011
    Total Energy =                       -384.0932582548198297
  Basis Set: CC-PVTZ
  Basis Set:
  Charge       = 0
  Multiplicity = 1
  Basis Set: CC-PVTZ
  Basis Set:

    Orbital Energies (a.u.)
    -----------------------

    Doubly Occupied:

       1A    -20.604576     2A    -20.541333     3A    -11.374252
       4A    -11.238654     5A    -11.220639     6A    -11.216216
       7A    -11.213804     8A    -11.208244     9A     -1.478345
      10A     -1.369754    11A     -1.095042    12A     -1.040514
      13A     -0.960220    14A     -0.871516    15A     -0.816866
      16A     -0.776335    17A     -0.705665    18A     -0.692956
      19A     -0.664334    20A     -0.635806    21A     -0.603236
      22A     -0.594561    23A     -0.574988    24A     -0.558562
      25A     -0.536036    26A     -0.510489    27A     -0.501208
      28A     -0.486252    29A     -0.467525    30A     -0.465056
      31A     -0.454754    32A     -0.446676

  @DF-RHF Final Energy:  -384.09325906889859

   => Energetics <=

    Nuclear Repulsion Energy =            382.5266702536100070
    One-Electron Energy =               -1281.3910254445195278
    Two-Electron Energy =                 514.7710961220112722
    DFT Exchange-Correlation Energy =       0.0000000000000000
    Empirical Dispersion Energy =           0.0000000000000000
    PCM Polarization Energy =               0.0000000000000000
    EFP Energy =                            0.0000000000000000
    Total Energy =                       -384.0932590688981918
    Molecular point group: c1
  Basis Set: CC-PVTZ
  Basis Set:

  -Total Gradient:
     Atom            X                  Y                   Z
    ------   -----------------  -----------------  -----------------
       1       -0.000004905198    -0.000010975764    -0.000015457703
       2       -0.000003540516     0.000031507021     0.000034422590
       3        0.000016749698     0.000057191147     0.000016438506
       4        0.002175006963     0.002210598584     0.002514119544
       5       -0.000034190737    -0.000071616561    -0.000066746307
       6       -0.002732122540    -0.002468763130    -0.001296255433
       7       -0.001370867782    -0.001438657347    -0.001880205939
       8       -0.000024224267    -0.000011821136     0.000007864260
       9        0.000003954076     0.000001753184     0.000014960531
      10        0.001937488077     0.001701451242     0.000660411390
      11        0.000000046278     0.000002002763     0.000005054843
      12        0.000027825532    -0.000038068374     0.000010191111
      13        0.000005723928     0.000002552541     0.000001051604
      14        0.000003292604    -0.000000363121    -0.000029047863
      15       -0.000007605843     0.000024327190     0.000005208048
      16       -0.000006676901    -0.000019816361     0.000050591669
      17       -0.000020844466     0.000032249414    -0.000002032810
      18        0.000005130257     0.000005314165    -0.000002151074
      19        0.000016572071    -0.000021115942     0.000006528245
      20        0.000013188772     0.000012250483    -0.000034945210

  **** Optimization is complete! (in 8 steps) ****
    Final optimized geometry and variables:
    Molecular point group: c1

    Geometry (in Angstrom), charge = 0, multiplicity = 1:

    H            2.748289665218    -1.323394354523     1.869619024242
    O            2.435522723274    -1.284261346383     0.978362418120
    C            1.629167749469    -0.233205858961     0.861380792041
    C            1.092284728497    -0.100010127991    -0.538905968313
    O            1.393738590227     0.481752826422     1.773391037530
    C            0.128511709032     1.070478136171    -0.732257324737
    H            1.943806485910    -0.025619205391    -1.205883408761
    H            0.631968969058    -1.049556315837    -0.786685617740
    C           -1.324591143962     0.778557968098    -0.354484610491
    H            0.185605663995     1.399874204830    -1.764623639298
    H            0.484141775935     1.899769258185    -0.134612796848
    C           -2.065712785404    -0.137970674824    -1.326371722993
    H           -1.857561005358     1.722983163940    -0.298668085867
    H           -1.357308702296     0.357288997931     0.646046291705
    C           -3.515459054469    -0.380637383996    -0.918828092875
    H           -2.040235945509     0.302020345980    -2.319706884638
    H           -1.558188080252    -1.094446503258    -1.405520949138
    H           -4.020588221635    -1.025236044582    -1.628927116196
    H           -4.067905701860     0.551440232915    -0.866435109761
    H           -3.573479325466    -0.852364344141     0.056281186266

  Mulliken Charges: (a.u.)
   Center  Symbol    Alpha    Beta     Spin     Total
       1     H     0.38256  0.38256  0.00000  0.23488
       2     O     4.15979  4.15979  0.00000 -0.31957
       3     C     2.80152  2.80152  0.00000  0.39695
       4     C     3.11936  3.11936  0.00000 -0.23871
       5     O     4.19247  4.19247  0.00000 -0.38494
       6     C     3.10418  3.10418  0.00000 -0.20837
       7     H     0.42884  0.42884  0.00000  0.14231
       8     H     0.43702  0.43702  0.00000  0.12596
       9     C     3.09691  3.09691  0.00000 -0.19383
      10     H     0.44453  0.44453  0.00000  0.11094
      11     H     0.43752  0.43752  0.00000  0.12496
      12     C     3.08502  3.08502  0.00000 -0.17003
      13     H     0.44729  0.44729  0.00000  0.10541
      14     H     0.44670  0.44670  0.00000  0.10659
      15     C     3.14968  3.14968  0.00000 -0.29937
      16     H     0.45458  0.45458  0.00000  0.09085
      17     H     0.45575  0.45575  0.00000  0.08850
      18     H     0.44838  0.44838  0.00000  0.10324
      19     H     0.45381  0.45381  0.00000  0.09238
      20     H     0.45408  0.45408  0.00000  0.09185

   Total alpha = 32.00000, Total beta = 32.00000, Total charge = -0.00000

*** Psi4 exiting successfully. Buy a developer a beer!
