                              Psi4 1.0.54 Driver

  ==> Input File <==

--------------------------------------------------------------------------
set {
	reference rhf
	basis cc-pvtz
}

set_num_threads( 4 )
memory 2 gb

molecule MOL {
0 1

H	 -2.070312	 0.372911	 -1.021921
N	 -1.851927	 0.161443	 -0.071573
C	 -0.561396	 -0.500007	 0.035200
H	 -2.582536	 -0.424366	 0.275375
C	 0.575129	 0.507849	 -0.048832
H	 -0.478089	 -1.200753	 -0.788956
H	 -0.456191	 -1.081816	 0.952176
C	 1.951750	 -0.141983	 0.035101
H	 0.478254	 1.061643	 -0.975981
H	 0.467676	 1.231891	 0.755499
H	 2.101550	 -0.848142	 -0.774949
H	 2.738260	 0.600794	 -0.026526
H	 2.078939	 -0.679792	 0.968824

	symmetry c1
}
set optking {
	frozen_dihedral = ("
		1 2 3 6
	")
}

ee,wfn = optimize('scf', return_wfn=True)
oeprop( wfn, 'DIPOLE', 'QUADRUPOLE', 'MULLIKEN_CHARGES')
f=open( 'psi4out.xyz', 'w' )
f.write( "13  " )
f.write( str(ee) + "\n" )
f.write( MOL.save_string_xyz() )
f.close()
--------------------------------------------------------------------------

    Molecular point group: c1
  Charge       = 0
  Multiplicity = 1
  Basis Set: CC-PVTZ
  Basis Set:
  @DF-RHF Final Energy:  -173.35019459288091
    Total Energy =                       -173.3501945928809960
    Molecular point group: c1
  Basis Set: CC-PVTZ
  Basis Set:
  Basis Set: CC-PVTZ
  Basis Set:
  @DF-RHF Final Energy:  -173.34173576984637
    Total Energy =                       -173.3417357698463377
  Basis Set: CC-PVTZ
  Basis Set:
  Basis Set: CC-PVTZ
  Basis Set:
  @DF-RHF Final Energy:  -173.35176232687860
    Total Energy =                       -173.3517623268787133
  Basis Set: CC-PVTZ
  Basis Set:
  Basis Set: CC-PVTZ
  Basis Set:
  @DF-RHF Final Energy:  -173.35192266673911
    Total Energy =                       -173.3519226667391990
  Basis Set: CC-PVTZ
  Basis Set:
  Basis Set: CC-PVTZ
  Basis Set:
  @DF-RHF Final Energy:  -173.35192850064809
    Total Energy =                       -173.3519285006480573
  Basis Set: CC-PVTZ
  Basis Set:
  Charge       = 0
  Multiplicity = 1
  Basis Set: CC-PVTZ
  Basis Set:

    Orbital Energies (a.u.)
    -----------------------

    Doubly Occupied:

       1A    -15.527409     2A    -11.238882     3A    -11.207571
       4A    -11.205724     5A     -1.178187     6A     -1.035371
       7A     -0.899273     8A     -0.797341     9A     -0.669517
      10A     -0.622541    11A     -0.603647    12A     -0.569564
      13A     -0.525633    14A     -0.491145    15A     -0.480783
      16A     -0.466848    17A     -0.384975

  @DF-RHF Final Energy:  -173.35193010578323

   => Energetics <=

    Nuclear Repulsion Energy =            131.8272888804609977
    One-Electron Energy =                -494.5496161216074711
    Two-Electron Energy =                 189.3703971353631914
    DFT Exchange-Correlation Energy =       0.0000000000000000
    Empirical Dispersion Energy =           0.0000000000000000
    PCM Polarization Energy =               0.0000000000000000
    EFP Energy =                            0.0000000000000000
    Total Energy =                       -173.3519301057832536
    Molecular point group: c1
  Basis Set: CC-PVTZ
  Basis Set:

  -Total Gradient:
     Atom            X                  Y                   Z
    ------   -----------------  -----------------  -----------------
       1       -0.000571042332    -0.002115762775    -0.000242899598
       2        0.000823708551     0.003125637484    -0.000038359191
       3       -0.000568104450    -0.002643604308     0.001364661961
       4        0.000001966954    -0.000012021317     0.000010971126
       5       -0.000027745478    -0.000005577972     0.000028207981
       6        0.000336679374     0.001652198496    -0.001137518810
       7       -0.000000020522     0.000004085736     0.000008872903
       8        0.000009190890    -0.000011690252    -0.000004777462
       9       -0.000004974242    -0.000008588564     0.000002434512
      10        0.000000907929     0.000013877330     0.000008781390
      11       -0.000000590535    -0.000003102337    -0.000000963924
      12       -0.000002472511     0.000005529882    -0.000004144943
      13        0.000002496371    -0.000000981403     0.000004734053

  **** Optimization is complete! (in 6 steps) ****
    Final optimized geometry and variables:
    Molecular point group: c1

    Geometry (in Angstrom), charge = 0, multiplicity = 1:

    H           -2.222861247967    -0.024573764985    -0.745699171167
    N           -1.841386523508    -0.231836554357     0.153416937219
    C           -0.437248718250    -0.606097536897     0.049507169756
    H           -2.382006459052    -0.985617464741     0.521183397357
    C            0.453248445528     0.626530621863    -0.030719896364
    H           -0.235168609557    -1.238225167913    -0.815451961548
    H           -0.173780220351    -1.179996615329     0.931050327809
    C            1.934364837551     0.282394641453    -0.142241577553
    H            0.152645745319     1.223256762672    -0.888132537723
    H            0.274695491509     1.239094590936     0.845851111941
    H            2.138036498232    -0.306801808318    -1.030514638451
    H            2.540779321705     1.178796627503    -0.196301766387
    H            2.269872073004    -0.290432727726     0.716335825260

  Mulliken Charges: (a.u.)
   Center  Symbol    Alpha    Beta     Spin     Total
       1     H     0.43091  0.43091  0.00000  0.13818
       2     N     3.68966  3.68966  0.00000 -0.37931
       3     C     3.02979  3.02979  0.00000 -0.05958
       4     H     0.42876  0.42876  0.00000  0.14249
       5     C     3.07108  3.07108  0.00000 -0.14216
       6     H     0.46720  0.46720  0.00000  0.06561
       7     H     0.45683  0.45683  0.00000  0.08633
       8     C     3.15393  3.15393  0.00000 -0.30787
       9     H     0.45965  0.45965  0.00000  0.08069
      10     H     0.45117  0.45117  0.00000  0.09765
      11     H     0.45729  0.45729  0.00000  0.08541
      12     H     0.44771  0.44771  0.00000  0.10459
      13     H     0.45601  0.45601  0.00000  0.08797

   Total alpha = 17.00000, Total beta = 17.00000, Total charge = -0.00000

*** Psi4 exiting successfully. Buy a developer a beer!
