  ==> Input File <==

--------------------------------------------------------------------------
set {
	reference rhf
	basis 6-31G*
}

set_num_threads( 1 )
memory 2 gb

molecule MOL {
0 1

O	 -2.042549	 -1.228399	 -0.269030
C	 -1.653912	 -0.146171	 0.050137
C	 -0.332303	 0.024011	 0.778412
C	 -2.438579	 1.106236	 -0.272369
C	 0.845713	 -0.001731	 -0.208243
H	 -0.323783	 0.953829	 1.340327
H	 -0.235459	 -0.796807	 1.480410
C	 1.363274	 -1.416765	 -0.470615
H	 1.659306	 0.612342	 0.173940
H	 0.525535	 0.451755	 -1.141505
C	 2.528942	 -1.446198	 -1.458319
H	 1.673557	 -1.868376	 0.469170
H	 0.550208	 -2.030056	 -0.851886
H	 3.371526	 -0.868628	 -1.088837
H	 2.238954	 -1.030322	 -2.418734
H	 2.873010	 -2.461604	 -1.627421
H	 -3.277823	 0.863061	 -0.908988
H	 -1.806773	 1.843019	 -0.759671
H	 -2.802853	 1.554979	 0.648059

	symmetry c1
}
set optking {
	frozen_dihedral = ("
		11 8 5 9,
		5 3 2 4
	")
}

ee = energy('scf')
oeprop('DIPOLE', 'QUADRUPOLE', 'MULLIKEN_CHARGES')
f=open( 'psi4out.xyz', 'w' )
f.write( "19  " )
f.write( str(ee) + "\n" )
f.write( MOL.save_string_xyz() )
f.close()
--------------------------------------------------------------------------

    Molecular point group: c1

    Geometry (in Angstrom), charge = 0, multiplicity = 1:

       Center              X                  Y                   Z               Mass
    ------------   -----------------  -----------------  -----------------  -----------------
           O         -1.798439941226    -0.778657540543     0.010690298600    15.994914619560
           C         -1.409802941226     0.303570459457     0.329857298600    12.000000000000
           C         -0.088193941226     0.473752459457     1.058132298600    12.000000000000
           C         -2.194469941226     1.555977459457     0.007351298600    12.000000000000
           C          1.089822058774     0.448010459457     0.071477298600    12.000000000000
           H         -0.079673941226     1.403570459457     1.620047298600     1.007825032070
           H          0.008650058774    -0.347065540543     1.760130298600     1.007825032070
           C          1.607383058774    -0.967023540543    -0.190894701400    12.000000000000
           H          1.903415058774     1.062083459457     0.453660298600     1.007825032070
           H          0.769644058774     0.901496459457    -0.861784701400     1.007825032070
           C          2.773051058774    -0.996456540543    -1.178598701400    12.000000000000
           H          1.917666058774    -1.418634540543     0.748890298600     1.007825032070
           H          0.794317058774    -1.580314540543    -0.572165701400     1.007825032070
           H          3.615635058774    -0.418886540543    -0.809116701400     1.007825032070
           H          2.483063058774    -0.580580540543    -2.139013701400     1.007825032070
           H          3.117119058774    -2.011862540543    -1.347700701400     1.007825032070
           H         -3.033713941226     1.312802459457    -0.629267701400     1.007825032070
           H         -1.562663941226     2.292760459457    -0.479950701400     1.007825032070
           H         -2.558743941226     2.004720459457     0.927779298600     1.007825032070

  Charge       = 0
  Multiplicity = 1
  Basis Set: 6-31G*
  Basis Set:

    Orbital Energies (a.u.)
    -----------------------

    Doubly Occupied:

       1A    -20.548622     2A    -11.325495     3A    -11.230222
       4A    -11.229233     5A    -11.228640     6A    -11.216251
       7A    -11.209681     8A     -1.394615     9A     -1.089259
      10A     -1.027340    11A     -0.982340    12A     -0.887005
      13A     -0.804588    14A     -0.735000    15A     -0.662264
      16A     -0.641148    17A     -0.620473    18A     -0.607508
      19A     -0.583078    20A     -0.574602    21A     -0.551889
      22A     -0.534909    23A     -0.521371    24A     -0.493863
      25A     -0.476295    26A     -0.472599    27A     -0.460741
      28A     -0.397051

  @DF-RHF Final Energy:  -309.06247391562880

   => Energetics <=

    Nuclear Repulsion Energy =            306.5855363588362366
    One-Electron Energy =               -1026.2839054255705378
    Two-Electron Energy =                 410.6358951511059558
    DFT Exchange-Correlation Energy =       0.0000000000000000
    Empirical Dispersion Energy =           0.0000000000000000
    PCM Polarization Energy =               0.0000000000000000
    EFP Energy =                            0.0000000000000000
    Total Energy =                       -309.0624739156284022

  Mulliken Charges: (a.u.)
   Center  Symbol    Alpha    Beta     Spin     Total
       1     O     4.26106  4.26106  0.00000 -0.52211
       2     C     2.73943  2.73943  0.00000  0.52114
       3     C     3.20358  3.20358  0.00000 -0.40717
       4     C     3.28898  3.28898  0.00000 -0.57796
       5     C     3.16002  3.16002  0.00000 -0.32003
       6     H     0.41395  0.41395  0.00000  0.17209
       7     H     0.40017  0.40017  0.00000  0.19967
       8     C     3.15574  3.15574  0.00000 -0.31148
       9     H     0.41587  0.41587  0.00000  0.16826
      10     H     0.41935  0.41935  0.00000  0.16130
      11     C     3.24082  3.24082  0.00000 -0.48165
      12     H     0.42209  0.42209  0.00000  0.15582
      13     H     0.40457  0.40457  0.00000  0.19087
      14     H     0.42323  0.42323  0.00000  0.15354
      15     H     0.42121  0.42121  0.00000  0.15758
      16     H     0.41709  0.41709  0.00000  0.16583
      17     H     0.39699  0.39699  0.00000  0.20601
      18     H     0.40949  0.40949  0.00000  0.18101
      19     H     0.40636  0.40636  0.00000  0.18727

   Total alpha = 28.00000, Total beta = 28.00000, Total charge = -0.00000
