                              Psi4 1.0.54 Driver

  ==> Input File <==

--------------------------------------------------------------------------
set {
	reference rhf
	basis cc-pvtz
}

set_num_threads( 4 )
memory 2 gb

molecule MOL {
0 1

O	 1.707903	 -0.513466	 0.261283
C	 0.860843	 0.273204	 -0.013120
C	 -0.623368	 -0.117453	 -0.005652
C	 1.244783	 1.691541	 -0.385858
C	 -0.892588	 -1.253841	 -1.002900
C	 -1.473463	 1.100646	 -0.372896
C	 -0.981836	 -0.579025	 1.418506
H	 -0.609333	 -0.970024	 -2.010649
H	 -1.950451	 -1.487353	 -1.013175
H	 -0.360848	 -2.161259	 -0.746463
H	 -1.232203	 1.461623	 -1.364827
H	 -2.524364	 0.834451	 -0.354500
H	 -1.312381	 1.914833	 0.318657
H	 -2.035706	 -0.826342	 1.468082
H	 -0.425078	 -1.458934	 1.716857
H	 -0.788494	 0.205047	 2.140903
H	 1.074094	 2.341863	 0.464853
H	 2.294930	 1.713085	 -0.633236
H	 0.662412	 2.075797	 -1.211948

	symmetry c1
}
set optking {
	frozen_dihedral = ("
		1 2 3 5
	")
}

ee,wfn = optimize('scf', return_wfn=True)
oeprop( wfn, 'DIPOLE', 'QUADRUPOLE', 'MULLIKEN_CHARGES')
f=open( 'psi4out.xyz', 'w' )
f.write( "19  " )
f.write( str(ee) + "\n" )
f.write( MOL.save_string_xyz() )
f.close()
--------------------------------------------------------------------------

    Molecular point group: c1
  Charge       = 0
  Multiplicity = 1
  Basis Set: CC-PVTZ
  Basis Set:
  @DF-RHF Final Energy:  -309.16914855210462
    Total Energy =                       -309.1691485521047298
    Molecular point group: c1
  Basis Set: CC-PVTZ
  Basis Set:
  Basis Set: CC-PVTZ
  Basis Set:
  @DF-RHF Final Energy:  -309.09181315712436
    Total Energy =                       -309.0918131571244203
  Basis Set: CC-PVTZ
  Basis Set:
  Basis Set: CC-PVTZ
  Basis Set:
  @DF-RHF Final Energy:  -309.16193417954173
    Total Energy =                       -309.1619341795415039
  Basis Set: CC-PVTZ
  Basis Set:
  Basis Set: CC-PVTZ
  Basis Set:
  @DF-RHF Final Energy:  -309.17177035091663
    Total Energy =                       -309.1717703509165744
  Basis Set: CC-PVTZ
  Basis Set:
  @DF-RHF Final Energy:  -309.16944036544402
    Total Energy =                       -309.1694403654433927
  @DF-RHF Final Energy:  -309.17232145100218
    Total Energy =                       -309.1723214510022899
  @DF-RHF Final Energy:  -309.17137249971921
    Total Energy =                       -309.1713724997190411
  @DF-RHF Final Energy:  -309.17285890676050
    Total Energy =                       -309.1728589067607231
  Basis Set: CC-PVTZ
  Basis Set:
  @DF-RHF Final Energy:  -309.17284871342144
    Total Energy =                       -309.1728487134213310
  Basis Set: CC-PVTZ
  Basis Set:
  Basis Set: CC-PVTZ
  Basis Set:
  @DF-RHF Final Energy:  -309.17285417693290
    Total Energy =                       -309.1728541769331287
  Basis Set: CC-PVTZ
  Basis Set:
  Basis Set: CC-PVTZ
  Basis Set:
  @DF-RHF Final Energy:  -309.17293170571219
    Total Energy =                       -309.1729317057120738
  Basis Set: CC-PVTZ
  Basis Set:
  Charge       = 0
  Multiplicity = 1
  Basis Set: CC-PVTZ
  Basis Set:

    Orbital Energies (a.u.)
    -----------------------

    Doubly Occupied:

       1A    -20.536258     2A    -11.318600     3A    -11.245500
       4A    -11.226210     5A    -11.219829     6A    -11.214480
       7A    -11.213871     8A     -1.398286     9A     -1.108739
      10A     -1.004882    11A     -0.941835    12A     -0.940378
      13A     -0.833827    14A     -0.705728    15A     -0.666828
      16A     -0.633509    17A     -0.624306    18A     -0.588248
      19A     -0.585634    20A     -0.574291    21A     -0.553313
      22A     -0.546755    23A     -0.522911    24A     -0.515366
      25A     -0.502938    26A     -0.472719    27A     -0.462278
      28A     -0.393751

  @DF-RHF Final Energy:  -309.17293104327803

   => Energetics <=

    Nuclear Repulsion Energy =            326.7541275437464492
    One-Electron Energy =               -1066.7515728577823211
    Two-Electron Energy =                 430.8245142707580726
    DFT Exchange-Correlation Energy =       0.0000000000000000
    Empirical Dispersion Energy =           0.0000000000000000
    PCM Polarization Energy =               0.0000000000000000
    EFP Energy =                            0.0000000000000000
    Total Energy =                       -309.1729310432777993
    Molecular point group: c1
  Basis Set: CC-PVTZ
  Basis Set:

  -Total Gradient:
     Atom            X                  Y                   Z
    ------   -----------------  -----------------  -----------------
       1        0.000056967464    -0.000031094428    -0.000128677399
       2       -0.000065506131     0.000028494731     0.000320198890
       3       -0.000099297353     0.000124726356    -0.000082109115
       4        0.000070907347    -0.000076025135    -0.000182119973
       5        0.000058475576    -0.000143058617    -0.000001358435
       6        0.000103721368    -0.000010743719    -0.000080509625
       7        0.000040805141    -0.000043471444    -0.000017848398
       8       -0.000019519430    -0.000054815890     0.000031758381
       9        0.000103216883     0.000037880470     0.000020180315
      10       -0.000064498103     0.000060922722    -0.000055029103
      11       -0.000073627972    -0.000004843269    -0.000091120753
      12       -0.000105189897    -0.000046704782     0.000035561828
      13        0.000092233074     0.000112748738     0.000094408349
      14       -0.000039006998    -0.000004960108     0.000003041689
      15       -0.000017508627    -0.000033722898     0.000003532737
      16        0.000014523275    -0.000001481593    -0.000003680496
      17       -0.000106352866     0.000012337305     0.000063778419
      18        0.000028694764     0.000040572672     0.000032638798
      19        0.000020962488     0.000033238884     0.000037353893

  **** Optimization is complete! (in 12 steps) ****
    Final optimized geometry and variables:
    Molecular point group: c1

    Geometry (in Angstrom), charge = 0, multiplicity = 1:

    O            1.656929216088    -0.564625683004     0.526630146974
    C            0.829635104736     0.248537497257     0.267129841387
    C           -0.571173434857    -0.210491007864    -0.181115998882
    C            1.157407292297     1.720934256551     0.372328674978
    C           -0.389154519241    -1.040587092115    -1.461275887485
    C           -1.539214271968     0.945267448012    -0.456076464325
    C           -1.141325246048    -1.099665955319     0.934307876727
    H            0.027048929618    -0.441277420569    -2.264438909224
    H           -1.347035449777    -1.421811981708    -1.795955869000
    H            0.273925501765    -1.875407278178    -1.286595183164
    H           -1.195453551237     1.584905856343    -1.260096319375
    H           -2.502569122820     0.546044262591    -0.750468132696
    H           -1.699201367515     1.561447372998     0.420698186465
    H           -2.111355723451    -1.485666422149     0.642200866744
    H           -0.483381902260    -1.932455150486     1.136020574151
    H           -1.271083816860    -0.541278995352     1.855689060754
    H            0.500787076720     2.209638154116     1.082256166656
    H            2.181853689623     1.827941191259     0.693204611464
    H            1.021608514767     2.213546151125    -0.582981332183

  Mulliken Charges: (a.u.)
   Center  Symbol    Alpha    Beta     Spin     Total
       1     O     4.18175  4.18175  0.00000 -0.36350
       2     C     2.84558  2.84558  0.00000  0.30885
       3     C     3.00579  3.00579  0.00000 -0.01158
       4     C     3.16193  3.16193  0.00000 -0.32386
       5     C     3.15344  3.15344  0.00000 -0.30689
       6     C     3.16518  3.16518  0.00000 -0.33036
       7     C     3.15346  3.15346  0.00000 -0.30692
       8     H     0.45020  0.45020  0.00000  0.09960
       9     H     0.44995  0.44995  0.00000  0.10009
      10     H     0.43587  0.43587  0.00000  0.12826
      11     H     0.44579  0.44579  0.00000  0.10842
      12     H     0.44248  0.44248  0.00000  0.11504
      13     H     0.44590  0.44590  0.00000  0.10821
      14     H     0.45023  0.45023  0.00000  0.09955
      15     H     0.43564  0.43564  0.00000  0.12871
      16     H     0.45026  0.45026  0.00000  0.09947
      17     H     0.44751  0.44751  0.00000  0.10499
      18     H     0.43168  0.43168  0.00000  0.13665
      19     H     0.44737  0.44737  0.00000  0.10526

   Total alpha = 28.00000, Total beta = 28.00000, Total charge = -0.00000

*** Psi4 exiting successfully. Buy a developer a beer!
