  ==> Input File <==

--------------------------------------------------------------------------
set {
	reference rhf
	basis 6-31G*
}

set_num_threads( 4 )
memory 2 gb

molecule MOL {
0 1

H	 -3.335488	 0.466474	 1.308409
C	 -3.342011	 0.174933	 0.250778
C	 -2.555994	 1.079012	 -0.664334
O	 -3.940020	 -0.790380	 -0.098945
C	 -1.117786	 1.303352	 -0.177010
H	 -2.577395	 0.657554	 -1.662644
H	 -3.077175	 2.035112	 -0.694303
C	 -0.252658	 0.041456	 -0.226725
H	 -0.663708	 2.076407	 -0.789778
H	 -1.137524	 1.695165	 0.838790
C	 1.180775	 0.282413	 0.250794
H	 -0.236837	 -0.339266	 -1.245866
H	 -0.705710	 -0.740738	 0.379457
C	 2.148627	 -0.814315	 -0.201312
H	 1.516199	 1.249228	 -0.115937
H	 1.192670	 0.346017	 1.338083
C	 3.580890	 -0.659131	 0.322722
H	 2.166869	 -0.852443	 -1.289387
H	 1.762857	 -1.776509	 0.128956
C	 4.324889	 0.564933	 -0.213704
H	 4.142010	 -1.551473	 0.056605
H	 3.564836	 -0.624694	 1.410140
H	 4.342616	 0.565491	 -1.300421
H	 3.866655	 1.493402	 0.110242
H	 5.353900	 0.572371	 0.132816

	symmetry c1
}
set optking {
	frozen_dihedral = ("
		12 8 11 14
	")
}

ee = optimize('scf')
oeprop('DIPOLE', 'QUADRUPOLE', 'MULLIKEN_CHARGES')
f=open( 'psi4out.xyz', 'w' )
f.write( "25  " )
f.write( str(ee) + "\n" )
f.write( MOL.save_string_xyz() )
f.close()
--------------------------------------------------------------------------

    Molecular point group: c1
  Charge       = 0
  Multiplicity = 1
  Basis Set: 6-31G*
  Basis Set:
  @DF-RHF Final Energy:  -387.12092973471914
    Total Energy =                       -387.1209297347189704
    Molecular point group: c1
  Basis Set: 6-31G*
  Basis Set:
  Basis Set: 6-31G*
  Basis Set:
  @DF-RHF Final Energy:  -387.12074123010018
    Total Energy =                       -387.1207412301001796
  Basis Set: 6-31G*
  Basis Set:
  Basis Set: 6-31G*
  Basis Set:
  @DF-RHF Final Energy:  -387.12006719622912
    Total Energy =                       -387.1200671962287743
  Basis Set: 6-31G*
  Basis Set:
  Basis Set: 6-31G*
  Basis Set:
  @DF-RHF Final Energy:  -387.12097593096064
    Total Energy =                       -387.1209759309605261
  Basis Set: 6-31G*
  Basis Set:
  Basis Set: 6-31G*
  Basis Set:
  @DF-RHF Final Energy:  -387.12100692949036
    Total Energy =                       -387.1210069294903633
  Basis Set: 6-31G*
  Basis Set:
  Basis Set: 6-31G*
  Basis Set:
  @DF-RHF Final Energy:  -387.12106192047071
    Total Energy =                       -387.1210619204704244
  Basis Set: 6-31G*
  Basis Set:
  Charge       = 0
  Multiplicity = 1
  Basis Set: 6-31G*
  Basis Set:

    Orbital Energies (a.u.)
    -----------------------

    Doubly Occupied:

       1A    -20.562089     2A    -11.326249     3A    -11.235562
       4A    -11.234755     5A    -11.223814     6A    -11.219756
       7A    -11.218073     8A    -11.217192     9A    -11.210825
      10A     -1.402035    11A     -1.103755    12A     -1.069856
      13A     -1.013079    14A     -0.942496    15A     -0.875713
      16A     -0.821032    17A     -0.788603    18A     -0.781020
      19A     -0.664967    20A     -0.659365    21A     -0.633971
      22A     -0.625193    23A     -0.603730    24A     -0.594713
      25A     -0.572334    26A     -0.553984    27A     -0.532095
      28A     -0.524796    29A     -0.511545    30A     -0.495617
      31A     -0.490680    32A     -0.478587    33A     -0.464316
      34A     -0.458365    35A     -0.441332    36A     -0.409695

  @DF-RHF Final Energy:  -387.12106252844893

   => Energetics <=

    Nuclear Repulsion Energy =            439.0148590710517169
    One-Electron Energy =               -1394.3494672504543814
    Two-Electron Energy =                 568.2135456509543019
    DFT Exchange-Correlation Energy =       0.0000000000000000
    Empirical Dispersion Energy =           0.0000000000000000
    PCM Polarization Energy =               0.0000000000000000
    EFP Energy =                            0.0000000000000000
    Total Energy =                       -387.1210625284484195
    Molecular point group: c1
  Basis Set: 6-31G*
  Basis Set:

  -Total Gradient:
     Atom            X                  Y                   Z
    ------   -----------------  -----------------  -----------------
       1        0.000020091358    -0.000014243661     0.000010191010
       2       -0.000098371647     0.000135797343     0.000050948742
       3        0.000021558811    -0.000032658407    -0.000058086310
       4        0.000025016900    -0.000004221088    -0.000019125879
       5       -0.000007984688    -0.000043804456     0.000104203724
       6        0.000029641627    -0.000048401161     0.000023952416
       7        0.000033334450     0.000015232457    -0.000040471121
       8        0.000083374427     0.004072711686    -0.002253389786
       9       -0.000074678576     0.000041418460     0.000004894330
      10       -0.000026764783    -0.000075536001     0.000003113481
      11       -0.000514524253    -0.002176394378     0.002729017990
      12        0.000117129818    -0.002888076416     0.001119883926
      13        0.000019547401     0.000008858571     0.000067874726
      14        0.000380224193     0.001051778766    -0.001806487334
      15        0.000073768877     0.000092504455     0.000062993290
      16       -0.000009217574    -0.000106650460    -0.000039476284
      17        0.000051717229    -0.000061126728    -0.000081223939
      18       -0.000022302772    -0.000082955907     0.000028940651
      19       -0.000037541431     0.000040430254     0.000074435815
      20       -0.000066884843     0.000044822909     0.000034557223
      21        0.000023462782     0.000045607110    -0.000048630117
      22        0.000040210286    -0.000078438872    -0.000002087210
      23        0.000015302744    -0.000031776852     0.000030805363
      24       -0.000067938100     0.000059928751    -0.000025682339
      25       -0.000008172238     0.000035193625     0.000028847628

  **** Optimization is complete! (in 7 steps) ****
    Final optimized geometry and variables:
    Molecular point group: c1

    Geometry (in Angstrom), charge = 0, multiplicity = 1:

    H           -3.307435068247     0.391518588975     1.436540331351
    C           -3.339417884369     0.058335349827     0.391661749212
    C           -2.582904807223     0.929747536638    -0.578463517088
    O           -3.945043817252    -0.920050179076     0.095340710981
    C           -1.132492058532     1.177160206648    -0.141165163998
    H           -2.630074175064     0.470672766440    -1.559219396859
    H           -3.108882703350     1.882207839853    -0.629885523459
    C           -0.254305083341    -0.073732262321    -0.202006811489
    H           -0.707053785912     1.947415293024    -0.777631541281
    H           -1.123717472936     1.581630982288     0.869851808388
    C            1.182492169172     0.170022576644     0.272496723121
    H           -0.244691882375    -0.469429125269    -1.215414119672
    H           -0.695361825471    -0.862247857207     0.405857856050
    C            2.145938302537    -0.936838700228    -0.164371620284
    H            1.528097548803     1.123717315527    -0.119388758606
    H            1.195360377408     0.263871780305     1.356731083511
    C            3.566853162324    -0.807045633120     0.395632897722
    H            2.188973035946    -0.960790384483    -1.251784286883
    H            1.739929728660    -1.898354655358     0.144048105646
    C            4.323207573161     0.437524081815    -0.072789906004
    H            4.132414667537    -1.688884016303     0.105209508846
    H            3.526990827261    -0.817621364144     1.482955613239
    H            4.370510435960     0.480162165383    -1.157699417574
    H            3.855074319885     1.352749194721     0.274342725169
    H            5.342358991524     0.432162351550     0.301203040897

  Mulliken Charges: (a.u.)
   Center  Symbol    Alpha    Beta     Spin     Total
       1     H     0.43256  0.43256  0.00000  0.13489
       2     C     2.83081  2.83081  0.00000  0.33838
       3     C     3.20838  3.20838  0.00000 -0.41676
       4     O     4.23774  4.23774  0.00000 -0.47549
       5     C     3.16703  3.16703  0.00000 -0.33407
       6     H     0.39957  0.39957  0.00000  0.20086
       7     H     0.40656  0.40656  0.00000  0.18687
       8     C     3.15561  3.15561  0.00000 -0.31123
       9     H     0.41267  0.41267  0.00000  0.17467
      10     H     0.41945  0.41945  0.00000  0.16110
      11     C     3.15458  3.15458  0.00000 -0.30916
      12     H     0.41772  0.41772  0.00000  0.16456
      13     H     0.41780  0.41780  0.00000  0.16439
      14     C     3.15380  3.15380  0.00000 -0.30760
      15     H     0.42141  0.42141  0.00000  0.15718
      16     H     0.42221  0.42221  0.00000  0.15558
      17     C     3.15275  3.15275  0.00000 -0.30551
      18     H     0.42310  0.42310  0.00000  0.15380
      19     H     0.42043  0.42043  0.00000  0.15914
      20     C     3.24163  3.24163  0.00000 -0.48327
      21     H     0.42000  0.42000  0.00000  0.15999
      22     H     0.42302  0.42302  0.00000  0.15397
      23     H     0.42212  0.42212  0.00000  0.15576
      24     H     0.42045  0.42045  0.00000  0.15911
      25     H     0.41858  0.41858  0.00000  0.16285

   Total alpha = 36.00000, Total beta = 36.00000, Total charge = -0.00000
