  ==> Input File <==

--------------------------------------------------------------------------
set {
	reference rhf
	basis cc-pvtz
}

set_num_threads( 4 )
memory 2 gb

molecule MOL {
0 1

H	 1.159738	 0.940574	 1.822762
O	 1.358071	 0.302636	 1.160833
C	 0.706474	 0.636793	 -0.025501
C	 -0.793473	 0.591216	 0.050087
H	 1.047528	 -0.070370	 -0.772430
H	 1.011127	 1.623032	 -0.370779
C	 -1.534243	 -0.493009	 -0.013340
H	 -1.266611	 1.552628	 0.164437
H	 -1.101195	 -1.466332	 -0.144046
H	 -2.604242	 -0.437780	 0.050785

	symmetry c1
}
set optking {
	frozen_dihedral = ("
		5 3 4 7
	")
}

ee = optimize('scf')
oeprop('DIPOLE', 'QUADRUPOLE', 'MULLIKEN_CHARGES')
f=open( 'psi4out.xyz', 'w' )
f.write( "10  " )
f.write( str(ee) + "\n" )
f.write( MOL.save_string_xyz() )
f.close()
--------------------------------------------------------------------------

    Molecular point group: c1
  Charge       = 0
  Multiplicity = 1
  Basis Set: CC-PVTZ
  Basis Set:
  @DF-RHF Final Energy:  -191.99347900724553
    Total Energy =                       -191.9934790072454405
    Molecular point group: c1
  Basis Set: CC-PVTZ
  Basis Set:
  Basis Set: CC-PVTZ
  Basis Set:
  @DF-RHF Final Energy:  -191.99403300903009
    Total Energy =                       -191.9940330090300336
  Basis Set: CC-PVTZ
  Basis Set:
  Basis Set: CC-PVTZ
  Basis Set:
  @DF-RHF Final Energy:  -191.99411436603305
    Total Energy =                       -191.9941143660331022
  Basis Set: CC-PVTZ
  Basis Set:
  Basis Set: CC-PVTZ
  Basis Set:
  @DF-RHF Final Energy:  -191.99413602683921
    Total Energy =                       -191.9941360268392145
  Basis Set: CC-PVTZ
  Basis Set:
  Basis Set: CC-PVTZ
  Basis Set:
  @DF-RHF Final Energy:  -191.99414106268102
    Total Energy =                       -191.9941410626811376
  Basis Set: CC-PVTZ
  Basis Set:
  Charge       = 0
  Multiplicity = 1
  Basis Set: CC-PVTZ
  Basis Set:

    Orbital Energies (a.u.)
    -----------------------

    Doubly Occupied:

       1A    -20.549264     2A    -11.274314     3A    -11.229355
       4A    -11.225107     5A     -1.366966     6A     -1.064988
       7A     -0.924360     8A     -0.781580     9A     -0.681990
      10A     -0.663672    11A     -0.611630    12A     -0.577906
      13A     -0.554807    14A     -0.479297    15A     -0.446004
      16A     -0.377982

  @DF-RHF Final Energy:  -191.99414174752030

   => Energetics <=

    Nuclear Repulsion Energy =            118.1742120258213760
    One-Electron Energy =                -494.7182685881857651
    Two-Electron Energy =                 184.5499148148441577
    DFT Exchange-Correlation Energy =       0.0000000000000000
    Empirical Dispersion Energy =           0.0000000000000000
    PCM Polarization Energy =               0.0000000000000000
    EFP Energy =                            0.0000000000000000
    Total Energy =                       -191.9941417475202456
    Molecular point group: c1
  Basis Set: CC-PVTZ
  Basis Set:

  -Total Gradient:
     Atom            X                  Y                   Z
    ------   -----------------  -----------------  -----------------
       1       -0.000005700070     0.000008684923     0.000001230524
       2        0.000064451069    -0.000078229520     0.000031457576
       3        0.000109636659    -0.001491038195     0.002399992962
       4       -0.000213943440     0.000447071344    -0.002830088132
       5       -0.000075215694     0.001208899463    -0.001257882231
       6       -0.000009585082    -0.000000003805    -0.000025153423
       7        0.000105731006    -0.000087618363     0.001635205754
       8        0.000015930759    -0.000005120533     0.000020009558
       9        0.000007236226     0.000004939060     0.000018968878
      10        0.000001458567    -0.000007584374     0.000006258535

  **** Optimization is complete! (in 6 steps) ****
    Final optimized geometry and variables:
    Molecular point group: c1

    Geometry (in Angstrom), charge = 0, multiplicity = 1:

    H            1.009580305494     0.569685713547     1.516510511198
    O            1.341715949901     0.030990165547     0.821161544132
    C            0.702336977925     0.355078597427    -0.385188588966
    C           -0.805010365999     0.336385142093    -0.291544418848
    H            1.038728238156    -0.371269994601    -1.111263915640
    H            1.030680710001     1.329865084409    -0.734416293167
    C           -1.527147930303    -0.761935436290    -0.321367291962
    H           -1.296551184807     1.284617327002    -0.150565414828
    H           -1.074959094236    -1.728621692503    -0.453096761301
    H           -2.595481535864    -0.737018433612    -0.215388455300

  Mulliken Charges: (a.u.)
   Center  Symbol    Alpha    Beta     Spin     Total
       1     H     0.39606  0.39606  0.00000  0.20788
       2     O     4.19701  4.19701  0.00000 -0.39402
       3     C     2.95131  2.95131  0.00000  0.09738
       4     C     3.09683  3.09683  0.00000 -0.19366
       5     H     0.45676  0.45676  0.00000  0.08647
       6     H     0.47082  0.47082  0.00000  0.05836
       7     C     3.15966  3.15966  0.00000 -0.31931
       8     H     0.41734  0.41734  0.00000  0.16533
       9     H     0.42759  0.42759  0.00000  0.14482
      10     H     0.42663  0.42663  0.00000  0.14675

   Total alpha = 16.00000, Total beta = 16.00000, Total charge = -0.00000
