  ==> Input File <==

--------------------------------------------------------------------------
set {
	reference rhf
	basis 6-31G*
}

set_num_threads( 4 )
memory 2 gb

molecule MOL {
0 1

H	 -0.881104	 -1.974419	 4.277366
C	 -0.323418	 -1.682480	 3.406258
C	 -0.584392	 -2.268512	 2.172287
C	 0.662115	 -0.721015	 3.494358
H	 -1.349097	 -3.019778	 2.084797
C	 0.128648	 -1.896724	 1.053116
H	 0.877754	 -0.256900	 4.440499
C	 1.390738	 -0.334617	 2.374420
H	 -0.062677	 -2.341231	 0.094136
C	 1.122531	 -0.925061	 1.149462
H	 2.150660	 0.415736	 2.475193
O	 1.765256	 -0.628444	 0.000000
C	 2.778419	 0.335181	 0.000000
H	 2.731280	 0.961222	 -0.884976
H	 3.711703	 -0.207767	 0.000000
H	 2.731280	 0.961222	 0.884976

	symmetry c1
}
set optking {
	frozen_dihedral = ("
		10 12 13 14
	")
}

ee = optimize('scf')
oeprop('DIPOLE', 'QUADRUPOLE', 'MULLIKEN_CHARGES')
f=open( 'psi4out.xyz', 'w' )
f.write( "16  " )
f.write( str(ee) + "\n" )
f.write( MOL.save_string_xyz() )
f.close()
--------------------------------------------------------------------------

    Molecular point group: c1
  Charge       = 0
  Multiplicity = 1
  Basis Set: 6-31G*
  Basis Set:
  @DF-RHF Final Energy:  -344.57507736378898
    Total Energy =                       -344.5750773637892621
    Molecular point group: c1
  Basis Set: 6-31G*
  Basis Set:
  Basis Set: 6-31G*
  Basis Set:
  @DF-RHF Final Energy:  -344.57517905940614
    Total Energy =                       -344.5751790594063095
  Basis Set: 6-31G*
  Basis Set:
  Basis Set: 6-31G*
  Basis Set:
  @DF-RHF Final Energy:  -344.57864878321340
    Total Energy =                       -344.5786487832134526
  Basis Set: 6-31G*
  Basis Set:
  Basis Set: 6-31G*
  Basis Set:
  @DF-RHF Final Energy:  -344.57941738382010
    Total Energy =                       -344.5794173838200436
  Basis Set: 6-31G*
  Basis Set:
  Basis Set: 6-31G*
  Basis Set:
  @DF-RHF Final Energy:  -344.57987716334696
    Total Energy =                       -344.5798771633470778
  Basis Set: 6-31G*
  Basis Set:
  Basis Set: 6-31G*
  Basis Set:
  @DF-RHF Final Energy:  -344.57990676379558
    Total Energy =                       -344.5799067637952362
  Basis Set: 6-31G*
  Basis Set:
  Basis Set: 6-31G*
  Basis Set:
  @DF-RHF Final Energy:  -344.57991179272426
    Total Energy =                       -344.5799117927240900
  Basis Set: 6-31G*
  Basis Set:
  Charge       = 0
  Multiplicity = 1
  Basis Set: 6-31G*
  Basis Set:

    Orbital Energies (a.u.)
    -----------------------

    Doubly Occupied:

       1A    -20.579689     2A    -11.292457     3A    -11.278684
       4A    -11.233068     5A    -11.231504     6A    -11.224277
       7A    -11.220594     8A    -11.219765     9A     -1.408229
      10A     -1.145957    11A     -1.020306    12A     -1.013025
      13A     -0.939604    14A     -0.831349    15A     -0.804863
      16A     -0.718788    17A     -0.663858    18A     -0.661721
      19A     -0.650619    20A     -0.614835    21A     -0.588805
      22A     -0.579765    23A     -0.524690    24A     -0.515363
      25A     -0.507457    26A     -0.479063    27A     -0.453333
      28A     -0.334414    29A     -0.307420

  @DF-RHF Final Energy:  -344.57991260321609

   => Energetics <=

    Nuclear Repulsion Energy =            347.7783687768938421
    One-Electron Energy =               -1156.6295651253294636
    Two-Electron Energy =                 464.2712837452194208
    DFT Exchange-Correlation Energy =       0.0000000000000000
    Empirical Dispersion Energy =           0.0000000000000000
    PCM Polarization Energy =               0.0000000000000000
    EFP Energy =                            0.0000000000000000
    Total Energy =                       -344.5799126032162576
    Molecular point group: c1
  Basis Set: 6-31G*
  Basis Set:

  -Total Gradient:
     Atom            X                  Y                   Z
    ------   -----------------  -----------------  -----------------
       1       -0.000008321019    -0.000008402584    -0.000001386389
       2        0.000091684433     0.000055126320     0.000054681241
       3        0.000002992972    -0.000007284821    -0.000095811684
       4       -0.000091000123    -0.000006900149     0.000057365027
       5        0.000005798979     0.000010510778     0.000012085009
       6       -0.000026732606     0.000037371392    -0.000023099433
       7        0.000005968517    -0.000003722207    -0.000001174802
       8       -0.000019051523    -0.000004591393    -0.000091711663
       9        0.000006286381    -0.000005860677    -0.000011083441
      10       -0.002097830843     0.000871186549    -0.001048175835
      11       -0.000000680924     0.000003197228    -0.000002834293
      12        0.002564998261    -0.001168452268     0.001985106994
      13        0.002029248554    -0.001184671499    -0.001398806998
      14       -0.002493343393     0.001516495164     0.000555295040
      15       -0.000000719495    -0.000044485239     0.000006346689
      16        0.000030701828    -0.000059516593     0.000003204541

  **** Optimization is complete! (in 8 steps) ****
    Final optimized geometry and variables:
    Molecular point group: c1

    Geometry (in Angstrom), charge = 0, multiplicity = 1:

    H           -1.999602798775    -0.828910910928     2.555662464048
    C           -1.364020434818    -0.605964178912     1.718038546781
    C           -1.629466310281    -1.151864411601     0.468797250327
    C           -0.269726923152     0.224198647157     1.870275986126
    H           -2.476592971604    -1.800972158389     0.335019753796
    C           -0.818868760678    -0.863998705165    -0.611297543752
    H           -0.044979501963     0.647451040668     2.833266368133
    C            0.558263789284     0.515590344720     0.794408345005
    H           -1.014775564196    -1.275758592171    -1.583852913137
    C            0.277450996795    -0.024119572599    -0.451747596210
    H            1.417490573355     1.144118457967     0.936838046943
    O            1.043881869748     0.185352569644    -1.546011631153
    C            1.723374716890     1.402642580343    -1.708760567996
    H            1.649572296019     1.674072806533    -2.752982885032
    H            2.765564023176     1.301533775416    -1.428403966499
    H            1.270177000574     2.192056163378    -1.122023682145

  Mulliken Charges: (a.u.)
   Center  Symbol    Alpha    Beta     Spin     Total
       1     H     0.40101  0.40101  0.00000  0.19798
       2     C     3.11104  3.11104  0.00000 -0.22209
       3     C     3.09286  3.09286  0.00000 -0.18572
       4     C     3.09218  3.09218  0.00000 -0.18436
       5     H     0.39874  0.39874  0.00000  0.20251
       6     C     3.12496  3.12496  0.00000 -0.24992
       7     H     0.39939  0.39939  0.00000  0.20121
       8     C     3.13777  3.13777  0.00000 -0.27554
       9     H     0.39317  0.39317  0.00000  0.21366
      10     C     2.78711  2.78711  0.00000  0.42577
      11     H     0.39750  0.39750  0.00000  0.20500
      12     O     4.32983  4.32983  0.00000 -0.65966
      13     C     3.08784  3.08784  0.00000 -0.17569
      14     H     0.40897  0.40897  0.00000  0.18206
      15     H     0.41792  0.41792  0.00000  0.16416
      16     H     0.41969  0.41969  0.00000  0.16062

   Total alpha = 29.00000, Total beta = 29.00000, Total charge = -0.00000
