  ==> Input File <==

--------------------------------------------------------------------------
set {
	reference rhf
	basis cc-pvtz
}

set_num_threads( 4 )
memory 2 gb

molecule MOL {
0 1

H	 1.266383	 -1.074215	 -0.200501
O	 1.182578	 -0.465032	 -0.912066
C	 0.616966	 0.722831	 -0.450881
C	 -0.793473	 0.591216	 0.050087
H	 0.636274	 1.415459	 -1.284066
H	 1.228684	 1.164737	 0.333479
C	 -1.534243	 -0.493009	 -0.013340
H	 -1.198372	 1.486852	 0.491834
H	 -1.101195	 -1.466332	 -0.144046
H	 -2.604242	 -0.437780	 0.050785

	symmetry c1
}
set optking {
	frozen_dihedral = ("
		3 4 7 9
	")
}

ee = optimize('scf')
oeprop('DIPOLE', 'QUADRUPOLE', 'MULLIKEN_CHARGES')
f=open( 'psi4out.xyz', 'w' )
f.write( "10  " )
f.write( str(ee) + "\n" )
f.write( MOL.save_string_xyz() )
f.close()
--------------------------------------------------------------------------

    Molecular point group: c1
  Charge       = 0
  Multiplicity = 1
  Basis Set: CC-PVTZ
  Basis Set:
  @DF-RHF Final Energy:  -191.98870088736925
    Total Energy =                       -191.9887008873692196
    Molecular point group: c1
  Basis Set: CC-PVTZ
  Basis Set:
  Basis Set: CC-PVTZ
  Basis Set:
  @DF-RHF Final Energy:  -191.99487880846419
    Total Energy =                       -191.9948788084642501
  Basis Set: CC-PVTZ
  Basis Set:
  Basis Set: CC-PVTZ
  Basis Set:
  @DF-RHF Final Energy:  -191.99510591764204
    Total Energy =                       -191.9951059176421495
  Basis Set: CC-PVTZ
  Basis Set:
  Basis Set: CC-PVTZ
  Basis Set:
  @DF-RHF Final Energy:  -191.99520034108096
    Total Energy =                       -191.9952003410808743
  Basis Set: CC-PVTZ
  Basis Set:
  Basis Set: CC-PVTZ
  Basis Set:
  @DF-RHF Final Energy:  -191.99520320203146
    Total Energy =                       -191.9952032020315755
  Basis Set: CC-PVTZ
  Basis Set:
  Charge       = 0
  Multiplicity = 1
  Basis Set: CC-PVTZ
  Basis Set:

    Orbital Energies (a.u.)
    -----------------------

    Doubly Occupied:

       1A    -20.554298     2A    -11.278447     3A    -11.230120
       4A    -11.217009     5A     -1.374359     6A     -1.061992
       7A     -0.931977     8A     -0.771459     9A     -0.692633
      10A     -0.663493    11A     -0.619064    12A     -0.574722
      13A     -0.542537    14A     -0.494294    15A     -0.452001
      16A     -0.367564

  @DF-RHF Final Energy:  -191.99520327231176

   => Energetics <=

    Nuclear Repulsion Energy =            119.3347655127519573
    One-Electron Energy =                -497.0079994719993692
    Two-Electron Energy =                 185.6780306869356139
    DFT Exchange-Correlation Energy =       0.0000000000000000
    Empirical Dispersion Energy =           0.0000000000000000
    PCM Polarization Energy =               0.0000000000000000
    EFP Energy =                            0.0000000000000000
    Total Energy =                       -191.9952032723117838
    Molecular point group: c1
  Basis Set: CC-PVTZ
  Basis Set:

  -Total Gradient:
     Atom            X                  Y                   Z
    ------   -----------------  -----------------  -----------------
       1        0.000002319506     0.000002708856    -0.000002910740
       2       -0.000020123853     0.000012939062     0.000019350892
       3       -0.003069515427     0.003489092178    -0.007339185088
       4        0.005567965782    -0.006968093374     0.017134427895
       5       -0.000001751987     0.000005478391     0.000004928059
       6        0.000005922183    -0.000004180959     0.000004565165
       7       -0.003475133651     0.006011046945    -0.021016616327
       8        0.000007240299     0.000015221881    -0.000025001694
       9        0.000993197362    -0.002568363162     0.011235972470
      10       -0.000010120212     0.000004150181    -0.000015530633

  **** Optimization is complete! (in 6 steps) ****
    Final optimized geometry and variables:
    Molecular point group: c1

    Geometry (in Angstrom), charge = 0, multiplicity = 1:

    H            1.400059800084    -1.102706667409     0.215588417793
    O            1.264127078412    -0.533632890439    -0.520438401145
    C            0.676339007295     0.657643904367    -0.094587017426
    C           -0.726746679137     0.514583376820     0.425102630905
    H            0.648232562862     1.312903160793    -0.956598824724
    H            1.298063146922     1.150277197402     0.650710026285
    C           -1.511072783254    -0.528479973228     0.256210345132
    H           -1.150284229740     1.431901586243     0.801547152695
    H           -1.126276045421    -1.497651772308     0.000833022178
    H           -2.540129051762    -0.490571197070     0.561609831342

  Mulliken Charges: (a.u.)
   Center  Symbol    Alpha    Beta     Spin     Total
       1     H     0.39195  0.39195  0.00000  0.21611
       2     O     4.19824  4.19824  0.00000 -0.39649
       3     C     2.95251  2.95251  0.00000  0.09498
       4     C     3.09012  3.09012  0.00000 -0.18025
       5     H     0.45216  0.45216  0.00000  0.09569
       6     H     0.46694  0.46694  0.00000  0.06612
       7     C     3.16638  3.16638  0.00000 -0.33276
       8     H     0.42490  0.42490  0.00000  0.15021
       9     H     0.42785  0.42785  0.00000  0.14430
      10     H     0.42895  0.42895  0.00000  0.14210

   Total alpha = 16.00000, Total beta = 16.00000, Total charge =  0.00000
