                              Psi4 1.0.54 Driver

  ==> Input File <==

--------------------------------------------------------------------------
set {
	reference rhf
	basis cc-pvtz
}

set_num_threads( 4 )
memory 2 gb

molecule MOL {
0 1

H	 -2.738722	 0.667836	 -0.241970
O	 -2.313989	 -0.142475	 -0.025864
C	 -0.943808	 -0.065018	 -0.330000
H	 -0.812293	 -0.225641	 -1.398673
C	 -0.231030	 -1.182113	 0.407592
C	 -0.353797	 1.300461	 0.050970
H	 -0.312800	 -0.992012	 1.473041
H	 -0.738841	 -2.119564	 0.220514
C	 1.246176	 -1.268044	 -0.015480
H	 -0.539537	 2.008579	 -0.751815
H	 -0.889989	 1.662858	 0.920677
C	 1.153605	 1.231851	 0.356834
H	 1.823096	 -1.684665	 0.802361
H	 1.352335	 -1.958223	 -0.845114
C	 1.826409	 0.100723	 -0.416008
H	 1.622968	 2.181508	 0.128734
H	 1.301983	 1.066493	 1.419367
H	 2.897299	 0.112407	 -0.249665
H	 1.683458	 0.265621	 -1.480024

	symmetry c1
}
set optking {
	frozen_dihedral = ("
		1 2 3 4
	")
}

ee,wfn = optimize('scf', return_wfn=True)
oeprop( wfn, 'DIPOLE', 'QUADRUPOLE', 'MULLIKEN_CHARGES')
f=open( 'psi4out.xyz', 'w' )
f.write( "19  " )
f.write( str(ee) + "\n" )
f.write( MOL.save_string_xyz() )
f.close()
--------------------------------------------------------------------------

    Molecular point group: c1
  Charge       = 0
  Multiplicity = 1
  Basis Set: CC-PVTZ
  Basis Set:
  @DF-RHF Final Energy:  -309.16319564801182
    Total Energy =                       -309.1631956480118788
    Molecular point group: c1
  Basis Set: CC-PVTZ
  Basis Set:
  Basis Set: CC-PVTZ
  Basis Set:
  @DF-RHF Final Energy:  -309.16321024194116
    Total Energy =                       -309.1632102419409307
  Basis Set: CC-PVTZ
  Basis Set:
  Charge       = 0
  Multiplicity = 1
  Basis Set: CC-PVTZ
  Basis Set:

    Orbital Energies (a.u.)
    -----------------------

    Doubly Occupied:

       1A    -20.542862     2A    -11.267050     3A    -11.216650
       4A    -11.215164     5A    -11.214308     6A    -11.213338
       7A    -11.206500     8A     -1.363023     9A     -1.110873
      10A     -1.004379    11A     -0.989730    12A     -0.846068
      13A     -0.838150    14A     -0.737509    15A     -0.692058
      16A     -0.666777    17A     -0.628930    18A     -0.594803
      19A     -0.582168    20A     -0.549012    21A     -0.529457
      22A     -0.520085    23A     -0.500778    24A     -0.487631
      25A     -0.466119    26A     -0.449754    27A     -0.427283
      28A     -0.416113

  @DF-RHF Final Energy:  -309.16321492870492

   => Energetics <=

    Nuclear Repulsion Energy =            332.0812278611101078
    One-Electron Energy =               -1077.9357359193077173
    Two-Electron Energy =                 436.6912931294923510
    DFT Exchange-Correlation Energy =       0.0000000000000000
    Empirical Dispersion Energy =           0.0000000000000000
    PCM Polarization Energy =               0.0000000000000000
    EFP Energy =                            0.0000000000000000
    Total Energy =                       -309.1632149287052016
    Molecular point group: c1
  Basis Set: CC-PVTZ
  Basis Set:

  -Total Gradient:
     Atom            X                  Y                   Z
    ------   -----------------  -----------------  -----------------
       1        0.000220893869     0.000448593195     0.001246461319
       2       -0.000250687172    -0.000811549202    -0.001514572176
       3       -0.000069155999     0.001480481842    -0.000003342563
       4        0.000051209442    -0.001129303251     0.000201752071
       5        0.000014398817     0.000092346382     0.000021740354
       6        0.000045006116     0.000054639720     0.000013239855
       7       -0.000007876534    -0.000013838718     0.000019416554
       8        0.000000439418     0.000008896931    -0.000003947269
       9        0.000016157448     0.000018839081    -0.000058858095
      10       -0.000031523038    -0.000047524277    -0.000025070084
      11       -0.000020995765     0.000006400726     0.000037859650
      12       -0.000054452197    -0.000052683443     0.000034816001
      13        0.000008923118     0.000030964392     0.000007209984
      14        0.000032857193     0.000006110573    -0.000000817058
      15        0.000020709525    -0.000045365775     0.000022820706
      16       -0.000008524763    -0.000017466393    -0.000005905868
      17        0.000026956392     0.000000635507     0.000011463230
      18        0.000012039384    -0.000023946416    -0.000011881672
      19       -0.000006375255    -0.000006230872     0.000007615061

  **** Optimization is complete! (in 3 steps) ****
    Final optimized geometry and variables:
    Molecular point group: c1

    Geometry (in Angstrom), charge = 0, multiplicity = 1:

    H           -2.744041489160     0.652130052920    -0.275934341764
    O           -2.315075842535    -0.152854922549    -0.049523380277
    C           -0.941089280570    -0.067843576287    -0.334250810262
    H           -0.797780333030    -0.234524071579    -1.400377742385
    C           -0.229150990893    -1.181386293981     0.410448370030
    C           -0.358494273569     1.298647076711     0.049694898329
    H           -0.313850391535    -0.988323610187     1.475181686403
    H           -0.735206377682    -2.120251051677     0.225011528504
    C            1.248731086387    -1.266161467481    -0.009946805262
    H           -0.545555088248     2.006405684252    -0.752904300023
    H           -0.894665099201     1.659572818362     0.921133262274
    C            1.148433570370     1.234345115918     0.359343374524
    H            1.824889471034    -1.681489733523     0.809080183313
    H            1.357811784570    -1.956038350781    -0.839398917360
    C            1.827101588193     0.103797425043    -0.409490274486
    H            1.615163062443     2.185020092740     0.130403050628
    H            1.294359570465     1.071563451445     1.422516136650
    H            2.897132254924     0.119086603543    -0.238071230201
    H            1.688442103191     0.267298137886    -1.474121810873

  Mulliken Charges: (a.u.)
   Center  Symbol    Alpha    Beta     Spin     Total
       1     H     0.39534  0.39534  0.00000  0.20932
       2     O     4.20179  4.20179  0.00000 -0.40357
       3     C     2.92247  2.92247  0.00000  0.15505
       4     H     0.46216  0.46216  0.00000  0.07569
       5     C     3.09738  3.09738  0.00000 -0.19477
       6     C     3.12544  3.12544  0.00000 -0.25088
       7     H     0.45544  0.45544  0.00000  0.08912
       8     H     0.44034  0.44034  0.00000  0.11932
       9     C     3.11391  3.11391  0.00000 -0.22781
      10     H     0.44857  0.44857  0.00000  0.10286
      11     H     0.44791  0.44791  0.00000  0.10419
      12     C     3.10089  3.10089  0.00000 -0.20179
      13     H     0.44707  0.44707  0.00000  0.10586
      14     H     0.44728  0.44728  0.00000  0.10545
      15     C     3.10250  3.10250  0.00000 -0.20500
      16     H     0.44248  0.44248  0.00000  0.11504
      17     H     0.45238  0.45238  0.00000  0.09524
      18     H     0.44278  0.44278  0.00000  0.11443
      19     H     0.45387  0.45387  0.00000  0.09226

   Total alpha = 28.00000, Total beta = 28.00000, Total charge =  0.00000

*** Psi4 exiting successfully. Buy a developer a beer!
