                              Psi4 1.0.54 Driver

  ==> Input File <==

--------------------------------------------------------------------------
set {
	reference rhf
	basis cc-pvtz
}

set_num_threads( 4 )
memory 2 gb

molecule MOL {
0 1

O	 0.609275	 0.522452	 -0.990046
C	 1.121787	 0.124983	 0.000110
C	 0.689195	 0.459200	 1.404612
O	 2.167739	 -0.685178	 -0.000678
C	 -0.512546	 1.390504	 1.471054
H	 0.487329	 -0.479603	 1.909962
H	 1.547549	 0.888413	 1.911038
C	 -0.923723	 1.707328	 2.905929
H	 -1.344524	 0.939916	 0.941597
H	 -0.283179	 2.309424	 0.943302
C	 -2.128756	 2.638277	 2.984168
H	 -1.149066	 0.782544	 3.430557
H	 -0.086075	 2.158392	 3.431403
H	 -2.993195	 2.199940	 2.497145
H	 -2.397945	 2.845513	 4.013375
H	 -1.922481	 3.585799	 2.498130
C	 3.449556	 -0.089977	 -0.000570
H	 3.585694	 0.522473	 -0.879546
H	 4.155805	 -0.904274	 -0.001389
H	 3.586173	 0.521118	 0.879272

	symmetry c1
}
set optking {
	frozen_dihedral = ("
		1 2 4 17
	")
}

ee,wfn = optimize('scf', return_wfn=True)
oeprop( wfn, 'DIPOLE', 'QUADRUPOLE', 'MULLIKEN_CHARGES')
f=open( 'psi4out.xyz', 'w' )
f.write( "20  " )
f.write( str(ee) + "\n" )
f.write( MOL.save_string_xyz() )
f.close()
--------------------------------------------------------------------------

    Molecular point group: c1
  Charge       = 0
  Multiplicity = 1
  Basis Set: CC-PVTZ
  Basis Set:
  @DF-RHF Final Energy:  -384.06234752568270
    Total Energy =                       -384.0623475256828669
    Molecular point group: c1
  Basis Set: CC-PVTZ
  Basis Set:
  Basis Set: CC-PVTZ
  Basis Set:
  @DF-RHF Final Energy:  -383.93675390816401
    Total Energy =                       -383.9367539081637233
  Basis Set: CC-PVTZ
  Basis Set:
  Basis Set: CC-PVTZ
  Basis Set:
  @DF-RHF Final Energy:  -384.03423340193473
    Total Energy =                       -384.0342334019341592
  Basis Set: CC-PVTZ
  Basis Set:
  Basis Set: CC-PVTZ
  Basis Set:
  @DF-RHF Final Energy:  -384.06134172208414
    Total Energy =                       -384.0613417220838528
  Basis Set: CC-PVTZ
  Basis Set:
  @DF-RHF Final Energy:  -384.03058537826882
    Total Energy =                       -384.0305853782687109
  @DF-RHF Final Energy:  -384.05481731902302
    Total Energy =                       -384.0548173190230727
  @DF-RHF Final Energy:  -384.06345377183902
    Total Energy =                       -384.0634537718391357
  Basis Set: CC-PVTZ
  Basis Set:
  @DF-RHF Final Energy:  -384.06389633630630
    Total Energy =                       -384.0638963363061293
  Basis Set: CC-PVTZ
  Basis Set:
  Basis Set: CC-PVTZ
  Basis Set:
  @DF-RHF Final Energy:  -384.06392205618420
    Total Energy =                       -384.0639220561840830
  Basis Set: CC-PVTZ
  Basis Set:
  Basis Set: CC-PVTZ
  Basis Set:
  @DF-RHF Final Energy:  -384.06392724381408
    Total Energy =                       -384.0639272438141916
  Basis Set: CC-PVTZ
  Basis Set:
  Charge       = 0
  Multiplicity = 1
  Basis Set: CC-PVTZ
  Basis Set:

    Orbital Energies (a.u.)
    -----------------------

    Doubly Occupied:

       1A    -20.577837     2A    -20.546026     3A    -11.367925
       4A    -11.288957     5A    -11.238542     6A    -11.221302
       7A    -11.220477     8A    -11.210906     9A     -1.461731
      10A     -1.370001    11A     -1.091793    12A     -1.020379
      13A     -0.971024    14A     -0.897028    15A     -0.808454
      16A     -0.767119    17A     -0.698106    18A     -0.681923
      19A     -0.676373    20A     -0.644791    21A     -0.617800
      22A     -0.591160    23A     -0.589884    24A     -0.550299
      25A     -0.538839    26A     -0.513937    27A     -0.497466
      28A     -0.492895    29A     -0.480028    30A     -0.473419
      31A     -0.454706    32A     -0.436591

  @DF-RHF Final Energy:  -384.06392790066081

   => Energetics <=

    Nuclear Repulsion Energy =            381.9439365219824367
    One-Electron Energy =               -1280.0202963499464204
    Two-Electron Energy =                 514.0124319273031688
    DFT Exchange-Correlation Energy =       0.0000000000000000
    Empirical Dispersion Energy =           0.0000000000000000
    PCM Polarization Energy =               0.0000000000000000
    EFP Energy =                            0.0000000000000000
    Total Energy =                       -384.0639279006608149
    Molecular point group: c1
  Basis Set: CC-PVTZ
  Basis Set:

  -Total Gradient:
     Atom            X                  Y                   Z
    ------   -----------------  -----------------  -----------------
       1       -0.001705467493    -0.002624992137    -0.000243938465
       2        0.002544817290     0.003662387314     0.001512214317
       3       -0.000046623709    -0.000019972898    -0.000001284172
       4       -0.001064211279    -0.000565735009    -0.003720481310
       5        0.000056667594    -0.000006158194    -0.000000703463
       6        0.000011436718     0.000001483052     0.000005146841
       7        0.000019786380     0.000007856971     0.000000807737
       8       -0.000037208619    -0.000002356803    -0.000007602650
       9       -0.000010979187     0.000002117283     0.000002070936
      10       -0.000002936662     0.000008019935    -0.000014358371
      11        0.000018059758    -0.000005579331     0.000000638411
      12       -0.000001074399    -0.000007332142     0.000011976579
      13        0.000001637326    -0.000003741431    -0.000003865204
      14        0.000001201108    -0.000002261599     0.000001482857
      15       -0.000003770812     0.000005726279     0.000005737478
      16       -0.000002925812     0.000000237269    -0.000000231231
      17        0.000197139896    -0.000454137751     0.002456655864
      18        0.000008674679     0.000006577308    -0.000024200176
      19        0.000004190241    -0.000008758272    -0.000011791875
      20        0.000011586983     0.000006620157     0.000031725899

  **** Optimization is complete! (in 11 steps) ****
    Final optimized geometry and variables:
    Molecular point group: c1

    Geometry (in Angstrom), charge = 0, multiplicity = 1:

    O           -0.067280893091     0.121163498772    -1.930707948615
    C            0.544058940755    -0.371950136673    -1.055636443788
    C            0.137238461708    -0.365854861168     0.395262772665
    O            1.666130464384    -1.086450921638    -1.294089412327
    C           -1.116239977850     0.444798202225     0.689991680525
    H            0.010787828027    -1.405810778419     0.681172635534
    H            0.981327196460    -0.006408268303     0.976459768379
    C           -1.500651016055     0.409912672835     2.166331283492
    H           -1.934144916270     0.066540837085     0.087705453086
    H           -0.961459618286     1.471267371173     0.375265097684
    C           -2.756990356120     1.218784547733     2.469931836258
    H           -1.652777359303    -0.620667827518     2.475923736422
    H           -0.676049550576     0.788434102742     2.764905256519
    H           -3.607943078768     0.841870477753     1.912978496541
    H           -3.005511983938     1.176001329623     3.523958469335
    H           -2.624437844850     2.261657898876     2.202613852390
    C            2.884754026832    -0.379551147616    -1.298886953502
    H            2.881668668382     0.383503294771    -2.066828802495
    H            3.660265881289    -1.097654798023    -1.510286633559
    H            3.078892980262     0.076491679956    -0.334215862372

  Mulliken Charges: (a.u.)
   Center  Symbol    Alpha    Beta     Spin     Total
       1     O     4.16888  4.16888  0.00000 -0.33777
       2     C     2.78594  2.78594  0.00000  0.42811
       3     C     3.11910  3.11910  0.00000 -0.23820
       4     O     4.16943  4.16943  0.00000 -0.33885
       5     C     3.08270  3.08270  0.00000 -0.16541
       6     H     0.43755  0.43755  0.00000  0.12489
       7     H     0.44418  0.44418  0.00000  0.11164
       8     C     3.08574  3.08574  0.00000 -0.17148
       9     H     0.44384  0.44384  0.00000  0.11231
      10     H     0.44807  0.44807  0.00000  0.10386
      11     C     3.14942  3.14942  0.00000 -0.29884
      12     H     0.45441  0.45441  0.00000  0.09117
      13     H     0.45573  0.45573  0.00000  0.08854
      14     H     0.45316  0.45316  0.00000  0.09369
      15     H     0.44807  0.44807  0.00000  0.10386
      16     H     0.45403  0.45403  0.00000  0.09194
      17     C     3.03533  3.03533  0.00000 -0.07066
      18     H     0.45423  0.45423  0.00000  0.09154
      19     H     0.44269  0.44269  0.00000  0.11463
      20     H     0.46749  0.46749  0.00000  0.06503

   Total alpha = 32.00000, Total beta = 32.00000, Total charge = -0.00000

*** Psi4 exiting successfully. Buy a developer a beer!
