  ==> Input File <==

--------------------------------------------------------------------------
set {
	reference rhf
	basis 6-31G*
}

set_num_threads( 1 )
memory 2 gb

molecule MOL {
0 1

O	 1.147852	 1.329962	 0.851334
C	 -0.017926	 1.266460	 0.629520
C	 -0.982072	 2.416076	 0.744199
O	 -0.632575	 0.154573	 0.251549
H	 -1.754709	 2.175523	 1.465389
H	 -0.451784	 3.304594	 1.052689
H	 -1.465736	 2.584925	 -0.210953
C	 0.160891	 -1.019931	 0.106212
C	 1.589627	 -0.672828	 0.480843
H	 0.089836	 -1.367806	 -0.916050
H	 -0.238459	 -1.792301	 0.749618
C	 2.246377	 0.346236	 -0.452210
H	 2.163194	 -1.597435	 0.473358
H	 1.604769	 -0.303424	 1.502885
C	 3.691736	 0.652107	 -0.061850
H	 2.219579	 -0.032311	 -1.472055
H	 1.666466	 1.263317	 -0.447249
H	 4.134505	 1.377213	 -0.737283
H	 4.305508	 -0.243868	 -0.089969
H	 3.748266	 1.059562	 0.943567

	symmetry c1
}
set optking {
	frozen_dihedral = ("
		16 12 9 8,
		12 9 8 10,
		1 2 4 8
	")
}

ee = energy('scf')
oeprop('DIPOLE', 'QUADRUPOLE', 'MULLIKEN_CHARGES')
f=open( 'psi4out.xyz', 'w' )
f.write( "20  " )
f.write( str(ee) + "\n" )
f.write( MOL.save_string_xyz() )
f.close()
--------------------------------------------------------------------------

    Molecular point group: c1

    Geometry (in Angstrom), charge = 0, multiplicity = 1:

       Center              X                  Y                   Z               Mass
    ------------   -----------------  -----------------  -----------------  -----------------
           O          0.246328494491     0.760711347830     0.529728713447    15.994914619560
           C         -0.919449505509     0.697209347830     0.307914713447    12.000000000000
           C         -1.883595505509     1.846825347830     0.422593713447    12.000000000000
           O         -1.534098505509    -0.414677652170    -0.070056286553    15.994914619560
           H         -2.656232505509     1.606272347830     1.143783713447     1.007825032070
           H         -1.353307505509     2.735343347830     0.731083713447     1.007825032070
           H         -2.367259505509     2.015674347830    -0.532558286553     1.007825032070
           C         -0.740632505509    -1.589181652170    -0.215393286553    12.000000000000
           C          0.688103494491    -1.242078652170     0.159237713447    12.000000000000
           H         -0.811687505509    -1.937056652170    -1.237655286553     1.007825032070
           H         -1.139982505509    -2.361551652170     0.428012713447     1.007825032070
           C          1.344853494491    -0.223014652170    -0.773815286553    12.000000000000
           H          1.261670494491    -2.166685652170     0.151752713447     1.007825032070
           H          0.703245494491    -0.872674652170     1.181279713447     1.007825032070
           C          2.790212494491     0.082856347830    -0.383455286553    12.000000000000
           H          1.318055494491    -0.601561652170    -1.793660286553     1.007825032070
           H          0.764942494491     0.694066347830    -0.768854286553     1.007825032070
           H          3.232981494491     0.807962347830    -1.058888286553     1.007825032070
           H          3.403984494491    -0.813118652170    -0.411574286553     1.007825032070
           H          2.846742494491     0.490311347830     0.621961713447     1.007825032070

  Charge       = 0
  Multiplicity = 1
  Basis Set: 6-31G*
  Basis Set:

    Orbital Energies (a.u.)
    -----------------------

    Doubly Occupied:

       1A    -20.609335     2A    -20.545226     3A    -11.378533
       4A    -11.284957     5A    -11.236566     6A    -11.200619
       7A    -11.191166     8A    -11.178454     9A     -1.492033
      10A     -1.389184    11A     -1.084179    12A     -1.014279
      13A     -0.974302    14A     -0.888225    15A     -0.828856
      16A     -0.766258    17A     -0.708564    18A     -0.703321
      19A     -0.677985    20A     -0.627333    21A     -0.599502
      22A     -0.576505    23A     -0.570244    24A     -0.567052
      25A     -0.544518    26A     -0.528120    27A     -0.522197
      28A     -0.484301    29A     -0.458017    30A     -0.451187
      31A     -0.406260    32A     -0.358278

  @DF-RHF Final Energy:  -383.78060032077423

   => Energetics <=

    Nuclear Repulsion Energy =            422.8918822858414046
    One-Electron Energy =               -1361.6540448277889936
    Two-Electron Energy =                 554.9815622211730215
    DFT Exchange-Correlation Energy =       0.0000000000000000
    Empirical Dispersion Energy =           0.0000000000000000
    PCM Polarization Energy =               0.0000000000000000
    EFP Energy =                            0.0000000000000000
    Total Energy =                       -383.7806003207746244

  Mulliken Charges: (a.u.)
   Center  Symbol    Alpha    Beta     Spin     Total
       1     O     4.28552  4.28552  0.00000 -0.57104
       2     C     2.61794  2.61794  0.00000  0.76413
       3     C     3.27813  3.27813  0.00000 -0.55626
       4     O     4.31167  4.31167  0.00000 -0.62335
       5     H     0.39906  0.39906  0.00000  0.20187
       6     H     0.39832  0.39832  0.00000  0.20336
       7     H     0.40180  0.40180  0.00000  0.19640
       8     C     2.99065  2.99065  0.00000  0.01871
       9     C     3.18509  3.18509  0.00000 -0.37017
      10     H     0.41203  0.41203  0.00000  0.17594
      11     H     0.41113  0.41113  0.00000  0.17774
      12     C     3.15201  3.15201  0.00000 -0.30403
      13     H     0.42686  0.42686  0.00000  0.14628
      14     H     0.39939  0.39939  0.00000  0.20121
      15     C     3.23246  3.23246  0.00000 -0.46493
      16     H     0.44482  0.44482  0.00000  0.11035
      17     H     0.38189  0.38189  0.00000  0.23622
      18     H     0.42379  0.42379  0.00000  0.15243
      19     H     0.42685  0.42685  0.00000  0.14630
      20     H     0.42058  0.42058  0.00000  0.15883

   Total alpha = 32.00000, Total beta = 32.00000, Total charge = -0.00000
