                              Psi4 1.0.54 Driver

  ==> Input File <==

--------------------------------------------------------------------------
set {
	reference rhf
	basis cc-pvtz
}

set_num_threads( 4 )
memory 2 gb

molecule MOL {
0 1

O	 -2.679280	 -0.385587	 0.839990
C	 -1.689604	 -0.490151	 1.488866
C	 -0.446099	 -1.143219	 0.918563
C	 -1.610217	 0.035718	 2.902347
C	 0.376695	 -0.140025	 0.100361
H	 -0.766675	 -1.956549	 0.279942
H	 0.162273	 -1.555255	 1.716671
C	 1.630207	 -0.772146	 -0.501001
H	 -0.256894	 0.262456	 -0.679897
H	 0.666867	 0.696815	 0.731074
C	 2.907848	 -0.545876	 0.309149
H	 1.772784	 -0.391628	 -1.509394
H	 1.468529	 -1.842059	 -0.599744
C	 3.373802	 0.906639	 0.372125
H	 3.699140	 -1.146831	 -0.127906
H	 2.764321	 -0.923458	 1.318191
H	 3.519798	 1.311927	 -0.623875
H	 4.316899	 0.983758	 0.900700
H	 2.661122	 1.540651	 0.885346
H	 -1.523648	 -0.799919	 3.589525
H	 -2.496101	 0.605269	 3.137698
H	 -0.726787	 0.650568	 3.033118

	symmetry c1
}
set optking {
	frozen_dihedral = ("
		3 5 8 12
	")
}

ee,wfn = optimize('scf', return_wfn=True)
oeprop( wfn, 'DIPOLE', 'QUADRUPOLE', 'MULLIKEN_CHARGES')
f=open( 'psi4out.xyz', 'w' )
f.write( "22  " )
f.write( str(ee) + "\n" )
f.write( MOL.save_string_xyz() )
f.close()
--------------------------------------------------------------------------

    Molecular point group: c1
  Charge       = 0
  Multiplicity = 1
  Basis Set: CC-PVTZ
  Basis Set:
  @DF-RHF Final Energy:  -348.21890133206387
    Total Energy =                       -348.2189013320637514
    Molecular point group: c1
  Basis Set: CC-PVTZ
  Basis Set:
  Basis Set: CC-PVTZ
  Basis Set:
  @DF-RHF Final Energy:  -348.21890523371758
    Total Energy =                       -348.2189052337175781
  Basis Set: CC-PVTZ
  Basis Set:
  Basis Set: CC-PVTZ
  Basis Set:
  @DF-RHF Final Energy:  -348.21941091765507
    Total Energy =                       -348.2194109176550114
  Basis Set: CC-PVTZ
  Basis Set:
  Basis Set: CC-PVTZ
  Basis Set:
  @DF-RHF Final Energy:  -348.21943075614439
    Total Energy =                       -348.2194307561446749
  Basis Set: CC-PVTZ
  Basis Set:
  Basis Set: CC-PVTZ
  Basis Set:
  @DF-RHF Final Energy:  -348.21946906370943
    Total Energy =                       -348.2194690637096528
  Basis Set: CC-PVTZ
  Basis Set:
  Basis Set: CC-PVTZ
  Basis Set:
  @DF-RHF Final Energy:  -348.21939789982662
    Total Energy =                       -348.2193978998265038
  Basis Set: CC-PVTZ
  Basis Set:
  Basis Set: CC-PVTZ
  Basis Set:
  @DF-RHF Final Energy:  -348.21948634846530
    Total Energy =                       -348.2194863484659777
  Basis Set: CC-PVTZ
  Basis Set:
  Charge       = 0
  Multiplicity = 1
  Basis Set: CC-PVTZ
  Basis Set:

    Orbital Energies (a.u.)
    -----------------------

    Doubly Occupied:

       1A    -20.536832     2A    -11.319066     3A    -11.228278
       4A    -11.227649     5A    -11.226910     6A    -11.221705
       7A    -11.220591     8A    -11.212692     9A     -1.396824
      10A     -1.097110    11A     -1.045772    12A     -1.000396
      13A     -0.939868    14A     -0.862151    15A     -0.786156
      16A     -0.736568    17A     -0.662468    18A     -0.651623
      19A     -0.627425    20A     -0.613312    21A     -0.604572
      22A     -0.584819    23A     -0.562246    24A     -0.550137
      25A     -0.529885    26A     -0.526320    27A     -0.505209
      28A     -0.490275    29A     -0.468641    30A     -0.464695
      31A     -0.461511    32A     -0.398887

  @DF-RHF Final Energy:  -348.21948636854052

   => Energetics <=

    Nuclear Repulsion Energy =            376.0006308750121207
    One-Electron Energy =               -1216.9190414541963037
    Two-Electron Energy =                 492.6989242106429288
    DFT Exchange-Correlation Energy =       0.0000000000000000
    Empirical Dispersion Energy =           0.0000000000000000
    PCM Polarization Energy =               0.0000000000000000
    EFP Energy =                            0.0000000000000000
    Total Energy =                       -348.2194863685412543
    Molecular point group: c1
  Basis Set: CC-PVTZ
  Basis Set:

  -Total Gradient:
     Atom            X                  Y                   Z
    ------   -----------------  -----------------  -----------------
       1       -0.000025948314     0.000008635015    -0.000028132089
       2        0.000028338461     0.000061352436    -0.000012447172
       3       -0.001061614966    -0.000598783164    -0.001810445581
       4       -0.000049420041    -0.000073359138     0.000014861334
       5        0.001157664503     0.000176673663     0.002220409058
       6        0.000014015128    -0.000030115681     0.000012592736
       7       -0.000002372078     0.000012415463    -0.000001184268
       8        0.001579898007     0.002672501953     0.000748407530
       9        0.000004386072     0.000021141386     0.000009081576
      10        0.000037725169    -0.000014411867     0.000001897815
      11       -0.000048130651     0.000039313743     0.000031095111
      12       -0.001655217390    -0.002270375728    -0.001149169782
      13       -0.000030755990    -0.000033012090     0.000018976999
      14        0.000015178977     0.000023071641    -0.000002361696
      15       -0.000026098027    -0.000005711750    -0.000013447833
      16       -0.000009191125    -0.000007567153    -0.000001675551
      17        0.000006760641     0.000009486170     0.000001366609
      18       -0.000012760706     0.000002892161    -0.000011671407
      19        0.000037305350    -0.000025368657    -0.000009603573
      20        0.000019901668     0.000016453893     0.000005382814
      21        0.000004549438     0.000001626551    -0.000009235720
      22        0.000015785878     0.000013141154    -0.000014696906

  **** Optimization is complete! (in 8 steps) ****
    Final optimized geometry and variables:
    Molecular point group: c1

    Geometry (in Angstrom), charge = 0, multiplicity = 1:

    O           -2.943237045997    -0.071747809124     0.030077733335
    C           -1.947549657742    -0.175213075802     0.669867653579
    C           -0.712931725713    -0.838091076894     0.092689365225
    C           -1.853429307483     0.359543719296     2.079212249427
    C            0.126887857845     0.164973926547    -0.711240175687
    H           -1.042097185189    -1.635029669523    -0.560952450310
    H           -0.115645644446    -1.272604650249     0.887862719716
    C            1.407382171551    -0.461838840455    -1.288771328581
    H           -0.494354406994     0.543132900712    -1.513695575100
    H            0.374995877078     1.019851460762    -0.091314456327
    C            2.665765483558    -0.254243595045    -0.443523065710
    H            1.575128016563    -0.086152545717    -2.293071433935
    H            1.242712526266    -1.528221562129    -1.410024010294
    C            3.222577845550     1.166480936577    -0.488619184912
    H            3.433866560315    -0.938168250186    -0.790063656642
    H            2.459771355839    -0.531659726620     0.587334793314
    H            3.489745623668     1.443850797710    -1.502794886524
    H            4.113480604100     1.252061529586     0.122782227536
    H            2.508338358491     1.896710414610    -0.126449922642
    H           -1.778295185419    -0.473250515733     2.771168094827
    H           -2.729586012255     0.944104276334     2.314123058994
    H           -0.960177068074     0.961144745625     2.203932640793

  Mulliken Charges: (a.u.)
   Center  Symbol    Alpha    Beta     Spin     Total
       1     O     4.17716  4.17716  0.00000 -0.35431
       2     C     2.85815  2.85815  0.00000  0.28371
       3     C     3.09706  3.09706  0.00000 -0.19413
       4     C     3.15568  3.15568  0.00000 -0.31136
       5     C     3.11134  3.11134  0.00000 -0.22268
       6     H     0.43813  0.43813  0.00000  0.12373
       7     H     0.44920  0.44920  0.00000  0.10159
       8     C     3.10491  3.10491  0.00000 -0.20983
       9     H     0.43432  0.43432  0.00000  0.13137
      10     H     0.44929  0.44929  0.00000  0.10142
      11     C     3.09059  3.09059  0.00000 -0.18117
      12     H     0.44390  0.44390  0.00000  0.11220
      13     H     0.44850  0.44850  0.00000  0.10300
      14     C     3.14861  3.14861  0.00000 -0.29721
      15     H     0.44666  0.44666  0.00000  0.10667
      16     H     0.45537  0.45537  0.00000  0.08925
      17     H     0.45329  0.45329  0.00000  0.09343
      18     H     0.44707  0.44707  0.00000  0.10586
      19     H     0.45546  0.45546  0.00000  0.08909
      20     H     0.44830  0.44830  0.00000  0.10340
      21     H     0.43584  0.43584  0.00000  0.12831
      22     H     0.45117  0.45117  0.00000  0.09766

   Total alpha = 32.00000, Total beta = 32.00000, Total charge = -0.00000

*** Psi4 exiting successfully. Buy a developer a beer!
