                              Psi4 1.0.54 Driver

  ==> Input File <==

--------------------------------------------------------------------------
set {
	reference rhf
	basis cc-pvtz
}

set_num_threads( 4 )
memory 2 gb

molecule MOL {
0 1

H	 -3.410460	 -0.382071	 -1.066361
O	 -3.515113	 -0.019339	 -0.206321
C	 -2.302264	 0.528872	 0.237390
C	 -1.175688	 -0.398187	 -0.171891
H	 -2.148018	 1.514076	 -0.197759
H	 -2.310727	 0.646384	 1.319032
C	 0.196029	 0.106276	 0.266738
H	 -1.201873	 -0.515469	 -1.250677
H	 -1.365975	 -1.378728	 0.252664
C	 1.330220	 -0.826136	 -0.155230
H	 0.359542	 1.097229	 -0.145561
H	 0.212134	 0.218135	 1.348778
C	 2.719700	 -0.407669	 0.328325
H	 1.339388	 -0.911200	 -1.239363
H	 1.119001	 -1.821953	 0.224128
C	 3.241564	 0.893452	 -0.276737
H	 3.418299	 -1.204729	 0.093035
H	 2.711776	 -0.323368	 1.411960
H	 3.254204	 0.841071	 -1.360784
H	 2.634460	 1.745075	 0.005842
H	 4.254264	 1.092401	 0.054971

	symmetry c1
}
set optking {
	frozen_dihedral = ("
		1 2 3 5
	")
}

ee,wfn = optimize('scf', return_wfn=True)
oeprop( wfn, 'DIPOLE', 'QUADRUPOLE', 'MULLIKEN_CHARGES')
f=open( 'psi4out.xyz', 'w' )
f.write( "21  " )
f.write( str(ee) + "\n" )
f.write( MOL.save_string_xyz() )
f.close()
--------------------------------------------------------------------------

    Molecular point group: c1
  Charge       = 0
  Multiplicity = 1
  Basis Set: CC-PVTZ
  Basis Set:
  @DF-RHF Final Energy:  -310.33053472302259
    Total Energy =                       -310.3305347230228222
    Molecular point group: c1
  Basis Set: CC-PVTZ
  Basis Set:
  Basis Set: CC-PVTZ
  Basis Set:
  @DF-RHF Final Energy:  -310.33205658880047
    Total Energy =                       -310.3320565888004694
  Basis Set: CC-PVTZ
  Basis Set:
  Basis Set: CC-PVTZ
  Basis Set:
  @DF-RHF Final Energy:  -310.33239748596151
    Total Energy =                       -310.3323974859615078
  Basis Set: CC-PVTZ
  Basis Set:
  Basis Set: CC-PVTZ
  Basis Set:
  @DF-RHF Final Energy:  -310.33240276868503
    Total Energy =                       -310.3324027686852560
  Basis Set: CC-PVTZ
  Basis Set:
  Charge       = 0
  Multiplicity = 1
  Basis Set: CC-PVTZ
  Basis Set:

    Orbital Energies (a.u.)
    -----------------------

    Doubly Occupied:

       1A    -20.544502     2A    -11.264319     3A    -11.218244
       4A    -11.217508     5A    -11.216346     6A    -11.215631
       7A    -11.208696     8A     -1.362768     9A     -1.091624
      10A     -1.037121    11A     -0.956960    12A     -0.881318
      13A     -0.823225    14A     -0.782536    15A     -0.687493
      16A     -0.647459    17A     -0.625853    18A     -0.620654
      19A     -0.592814    20A     -0.573296    21A     -0.552272
      22A     -0.525510    23A     -0.505863    24A     -0.502548
      25A     -0.481474    26A     -0.465242    27A     -0.460036
      28A     -0.454893    29A     -0.427872

  @DF-RHF Final Energy:  -310.33240326859021

   => Energetics <=

    Nuclear Repulsion Energy =            312.8710546809882658
    One-Electron Energy =               -1040.5187655713209551
    Two-Electron Energy =                 417.3153076217424768
    DFT Exchange-Correlation Energy =       0.0000000000000000
    Empirical Dispersion Energy =           0.0000000000000000
    PCM Polarization Energy =               0.0000000000000000
    EFP Energy =                            0.0000000000000000
    Total Energy =                       -310.3324032685902694
    Molecular point group: c1
  Basis Set: CC-PVTZ
  Basis Set:

  -Total Gradient:
     Atom            X                  Y                   Z
    ------   -----------------  -----------------  -----------------
       1        0.000384409415    -0.001310018254     0.000506564515
       2       -0.000622831965     0.001729440497    -0.000339907496
       3        0.000745074632    -0.000908255655    -0.001224843609
       4       -0.000012944489     0.000015236837     0.000010291941
       5       -0.000513392411     0.000481131871     0.001035126555
       6        0.000013969233    -0.000011116030     0.000003116127
       7       -0.000018746734    -0.000003370811    -0.000003764514
       8       -0.000009068246     0.000006365461     0.000015507233
       9       -0.000006894498     0.000004670357    -0.000004080481
      10        0.000032814765    -0.000000498753     0.000006766034
      11        0.000003645128     0.000001581776     0.000001506651
      12        0.000003080413     0.000002049547    -0.000004471396
      13        0.000003527199    -0.000011053282    -0.000003275050
      14       -0.000001563582     0.000002440589     0.000001696458
      15        0.000001467464     0.000001514884     0.000002126621
      16       -0.000002074105    -0.000001359397    -0.000003140242
      17        0.000001893943     0.000000664597    -0.000000636258
      18       -0.000000678275    -0.000002614262     0.000002278763
      19        0.000001050093     0.000001831722    -0.000001340616
      20       -0.000002728030     0.000001171300    -0.000000512890
      21       -0.000000009953     0.000000187005     0.000000991654

  **** Optimization is complete! (in 5 steps) ****
    Final optimized geometry and variables:
    Molecular point group: c1

    Geometry (in Angstrom), charge = 0, multiplicity = 1:

    H           -3.520555130632    -0.350571082972    -1.079144651551
    O           -3.567001935902    -0.031445147359    -0.196334365129
    C           -2.318907319096     0.471465520958     0.197685847702
    C           -1.160906068433    -0.425830813546    -0.204869572704
    H           -2.175119524965     1.474872272815    -0.197720043408
    H           -2.359933539690     0.560548595648     1.276115181105
    C            0.191569314740     0.102162194370     0.265427561147
    H           -1.150660199207    -0.526867999946    -1.289293118201
    H           -1.334247075831    -1.418620186862     0.199128100027
    C            1.356021394279    -0.796050865592    -0.148078932391
    H            0.337584034032     1.103253702602    -0.127560641435
    H            0.181592103107     0.196486967311     1.348743260737
    C            2.724118569747    -0.354093841803     0.373949510252
    H            1.391597643234    -0.860532465185    -1.233252891725
    H            1.160290057700    -1.803338441667     0.208654731407
    C            3.227386376471     0.970221722581    -0.195228809793
    H            3.446385652528    -1.129889976191     0.139459202705
    H            2.690272529213    -0.290826384764     1.458376538674
    H            3.264540602412     0.939004377919    -1.279536580139
    H            2.594572069603     1.801886998728     0.090172203191
    H            4.227684617773     1.186170697262     0.162116160994

  Mulliken Charges: (a.u.)
   Center  Symbol    Alpha    Beta     Spin     Total
       1     H     0.39412  0.39412  0.00000  0.21175
       2     O     4.20248  4.20248  0.00000 -0.40496
       3     C     2.95939  2.95939  0.00000  0.08123
       4     C     3.09833  3.09833  0.00000 -0.19665
       5     H     0.47317  0.47317  0.00000  0.05366
       6     H     0.45855  0.45855  0.00000  0.08289
       7     C     3.10248  3.10248  0.00000 -0.20496
       8     H     0.46261  0.46261  0.00000  0.07478
       9     H     0.44809  0.44809  0.00000  0.10382
      10     C     3.09448  3.09448  0.00000 -0.18897
      11     H     0.45208  0.45208  0.00000  0.09585
      12     H     0.45221  0.45221  0.00000  0.09558
      13     C     3.09041  3.09041  0.00000 -0.18083
      14     H     0.45377  0.45377  0.00000  0.09247
      15     H     0.44853  0.44853  0.00000  0.10295
      16     C     3.15253  3.15253  0.00000 -0.30506
      17     H     0.44812  0.44812  0.00000  0.10375
      18     H     0.45416  0.45416  0.00000  0.09169
      19     H     0.45491  0.45491  0.00000  0.09018
      20     H     0.45370  0.45370  0.00000  0.09259
      21     H     0.44587  0.44587  0.00000  0.10825

   Total alpha = 29.00000, Total beta = 29.00000, Total charge = -0.00000

*** Psi4 exiting successfully. Buy a developer a beer!
