  ==> Input File <==

--------------------------------------------------------------------------
set {
	reference rhf
	basis cc-pvtz
}

set_num_threads( 4 )
memory 2 gb

molecule MOL {
0 1

H	 -2.698799	 -0.000846	 0.036018
C	 -1.694291	 -0.000483	 0.434279
O	 -0.828718	 -0.000608	 -0.655022
H	 -1.576855	 0.881100	 1.056504
H	 -1.576401	 -0.881658	 1.057001
C	 0.557892	 0.000078	 -0.420099
C	 0.996971	 1.140958	 0.490875
C	 1.071487	 -1.353250	 0.058410
H	 0.975210	 0.182877	 -1.402468
H	 0.584307	 2.080385	 0.144114
H	 2.077842	 1.221094	 0.484495
H	 0.687258	 0.987720	 1.518094
H	 0.710574	 -2.143538	 -0.588298
H	 2.155083	 -1.363769	 0.036423
H	 0.763661	 -1.572707	 1.074099

	symmetry c1
}
set optking {
	frozen_dihedral = ("
		9 6 3 2
	")
}

ee = optimize('scf')
oeprop('DIPOLE', 'QUADRUPOLE', 'MULLIKEN_CHARGES')
f=open( 'psi4out.xyz', 'w' )
f.write( "15  " )
f.write( str(ee) + "\n" )
f.write( MOL.save_string_xyz() )
f.close()
--------------------------------------------------------------------------

    Molecular point group: c1
  Charge       = 0
  Multiplicity = 1
  Basis Set: CC-PVTZ
  Basis Set:
  @DF-RHF Final Energy:  -232.22588580611520
    Total Energy =                       -232.2258858061151727
    Molecular point group: c1
  Basis Set: CC-PVTZ
  Basis Set:
  Basis Set: CC-PVTZ
  Basis Set:
  @DF-RHF Final Energy:  -232.22600769017868
    Total Energy =                       -232.2260076901785624
  Basis Set: CC-PVTZ
  Basis Set:
  Basis Set: CC-PVTZ
  Basis Set:
  @DF-RHF Final Energy:  -232.22604442861808
    Total Energy =                       -232.2260444286182519
  Basis Set: CC-PVTZ
  Basis Set:
  Basis Set: CC-PVTZ
  Basis Set:
  @DF-RHF Final Energy:  -232.22604916031986
    Total Energy =                       -232.2260491603197465
  Basis Set: CC-PVTZ
  Basis Set:
  Charge       = 0
  Multiplicity = 1
  Basis Set: CC-PVTZ
  Basis Set:

    Orbital Energies (a.u.)
    -----------------------

    Doubly Occupied:

       1A    -20.541747     2A    -11.272651     3A    -11.258709
       4A    -11.209875     5A    -11.207556     6A     -1.373459
       7A     -1.051639     8A     -0.941271     9A     -0.930508
      10A     -0.781478    11A     -0.675884    12A     -0.642716
      13A     -0.634951    14A     -0.574442    15A     -0.564012
      16A     -0.552849    17A     -0.534045    18A     -0.499653
      19A     -0.496742    20A     -0.445051    21A     -0.408998

  @DF-RHF Final Energy:  -232.22605078469451

   => Energetics <=

    Nuclear Repulsion Energy =            199.0477367816832270
    One-Electron Energy =                -709.3511072473850163
    Two-Electron Energy =                 278.0773196810074523
    DFT Exchange-Correlation Energy =       0.0000000000000000
    Empirical Dispersion Energy =           0.0000000000000000
    PCM Polarization Energy =               0.0000000000000000
    EFP Energy =                            0.0000000000000000
    Total Energy =                       -232.2260507846943369
    Molecular point group: c1
  Basis Set: CC-PVTZ
  Basis Set:

  -Total Gradient:
     Atom            X                  Y                   Z
    ------   -----------------  -----------------  -----------------
       1       -0.000002589135    -0.000010464472     0.000012337175
       2       -0.000001760915     0.000740518259    -0.000019944409
       3       -0.000010968208    -0.000938052340     0.000027074042
       4        0.000003988662     0.000017544710     0.000027518307
       5       -0.000013704632     0.000017466547    -0.000017883322
       6       -0.000011952120    -0.000651447754    -0.000192079313
       7       -0.000022559080    -0.000012613672     0.000007058076
       8        0.000078386976     0.000005615754     0.000003043506
       9       -0.000015471607     0.000857118998     0.000159538766
      10       -0.000004692340    -0.000001302027     0.000005122317
      11        0.000019784211    -0.000009543191    -0.000017668971
      12       -0.000011128496     0.000000825552    -0.000011701787
      13        0.000002797404     0.000012848617    -0.000004265465
      14       -0.000019210768    -0.000030345925     0.000016782060
      15        0.000009080047     0.000001830944     0.000005069017

  **** Optimization is complete! (in 5 steps) ****
    Final optimized geometry and variables:
    Molecular point group: c1

    Geometry (in Angstrom), charge = 0, multiplicity = 1:

    H           -2.694239301603    -0.069573840759     0.047592927230
    C           -1.693438380494     0.039886035324     0.440314519214
    O           -0.829583740730     0.048456607827    -0.650254199396
    H           -1.649601419167     0.964683018793     1.006550944383
    H           -1.503007879080    -0.788174933671     1.116481858891
    C            0.557675765280     0.048707303790    -0.417062718537
    C            1.010634504786     1.179153936911     0.500090838211
    C            1.054945072202    -1.313265501204     0.053264714859
    H            0.976544639359     0.238891983056    -1.397457946783
    H            0.609302709340     2.127175814759     0.162722401380
    H            2.092193168763     1.246052135140     0.487962098918
    H            0.703938561023     1.021985428858     1.527669309900
    H            0.706685081379    -2.089860825195    -0.616072895805
    H            2.138843880760    -1.331416250513     0.063565394940
    H            0.714265267665    -1.546826351572     1.055426950381

  Mulliken Charges: (a.u.)
   Center  Symbol    Alpha    Beta     Spin     Total
       1     H     0.44129  0.44129  0.00000  0.11742
       2     C     3.03929  3.03929  0.00000 -0.07858
       3     O     4.18357  4.18357  0.00000 -0.36714
       4     H     0.46871  0.46871  0.00000  0.06259
       5     H     0.47099  0.47099  0.00000  0.05802
       6     C     2.93384  2.93384  0.00000  0.13232
       7     C     3.16299  3.16299  0.00000 -0.32598
       8     C     3.15282  3.15282  0.00000 -0.30563
       9     H     0.44713  0.44713  0.00000  0.10574
      10     H     0.44373  0.44373  0.00000  0.11253
      11     H     0.44783  0.44783  0.00000  0.10434
      12     H     0.45474  0.45474  0.00000  0.09052
      13     H     0.44475  0.44475  0.00000  0.11050
      14     H     0.45184  0.45184  0.00000  0.09632
      15     H     0.45649  0.45649  0.00000  0.08702

   Total alpha = 21.00000, Total beta = 21.00000, Total charge = -0.00000
