  ==> Input File <==

--------------------------------------------------------------------------
set {
	reference rhf
	basis 6-31G*
}

set_num_threads( 1 )
memory 2 gb

molecule MOL {
0 1

O	 0.216034	 0.013175	 0.761626
C	 1.122059	 0.121804	 -0.000188
C	 1.242002	 1.171362	 -1.078120
O	 2.172624	 -0.688929	 0.000216
C	 0.057667	 2.131900	 -1.123521
H	 2.174389	 1.703669	 -0.910616
H	 1.364286	 0.652077	 -2.024769
C	 0.204307	 3.184076	 -2.223879
H	 -0.045309	 2.619707	 -0.159184
H	 -0.856694	 1.566512	 -1.274461
C	 -0.978641	 4.149885	 -2.277277
H	 1.122377	 3.747130	 -2.068337
H	 0.309730	 2.689883	 -3.187585
H	 -1.089578	 4.685248	 -1.338803
H	 -0.849665	 4.885330	 -3.065162
H	 -1.907919	 3.620530	 -2.466661
C	 3.452279	 -0.082609	 0.000533
H	 3.583069	 0.529321	 -0.880332
H	 4.163299	 -0.894027	 0.001117
H	 3.582335	 0.529955	 0.881077

	symmetry c1
}
set optking {
	frozen_dihedral = ("
		9 5 8 12,
		1 2 3 6,
		9 5 3 6
	")
}

ee = energy('scf')
oeprop('DIPOLE', 'QUADRUPOLE', 'MULLIKEN_CHARGES')
f=open( 'psi4out.xyz', 'w' )
f.write( "20  " )
f.write( str(ee) + "\n" )
f.write( MOL.save_string_xyz() )
f.close()
--------------------------------------------------------------------------

    Molecular point group: c1

    Geometry (in Angstrom), charge = 0, multiplicity = 1:

       Center              X                  Y                   Z               Mass
    ------------   -----------------  -----------------  -----------------  -----------------
           O         -0.740544141911    -1.226015012012     1.492706973948    15.994914619560
           C          0.165480858089    -1.117386012012     0.730892973948    12.000000000000
           C          0.285423858089    -0.067828012012    -0.347039026052    12.000000000000
           O          1.216045858089    -1.928119012012     0.731296973948    15.994914619560
           C         -0.898911141911     0.892709987988    -0.392440026052    12.000000000000
           H          1.217810858089     0.464478987988    -0.179535026052     1.007825032070
           H          0.407707858089    -0.587113012012    -1.293688026052     1.007825032070
           C         -0.752271141911     1.944885987988    -1.492798026052    12.000000000000
           H         -1.001887141911     1.380516987988     0.571896973948     1.007825032070
           H         -1.813272141911     0.327321987988    -0.543380026052     1.007825032070
           C         -1.935219141911     2.910694987988    -1.546196026052    12.000000000000
           H          0.165798858089     2.507939987988    -1.337256026052     1.007825032070
           H         -0.646848141911     1.450692987988    -2.456504026052     1.007825032070
           H         -2.046156141911     3.446057987988    -0.607722026052     1.007825032070
           H         -1.806243141911     3.646139987988    -2.334081026052     1.007825032070
           H         -2.864497141911     2.381339987988    -1.735580026052     1.007825032070
           C          2.495700858089    -1.321799012012     0.731613973948    12.000000000000
           H          2.626490858089    -0.709869012012    -0.149251026052     1.007825032070
           H          3.206720858089    -2.133217012012     0.732197973948     1.007825032070
           H          2.625756858089    -0.709235012012     1.612157973948     1.007825032070

  Charge       = 0
  Multiplicity = 1
  Basis Set: 6-31G*
  Basis Set:

    Orbital Energies (a.u.)
    -----------------------

    Doubly Occupied:

       1A    -20.596077     2A    -20.551445     3A    -11.374468
       4A    -11.297298     5A    -11.239507     6A    -11.223418
       7A    -11.222263     8A    -11.212985     9A     -1.465659
      10A     -1.369644    11A     -1.090928    12A     -1.017821
      13A     -0.984913    14A     -0.903348    15A     -0.810695
      16A     -0.767300    17A     -0.698658    18A     -0.684149
      19A     -0.681016    20A     -0.649333    21A     -0.617573
      22A     -0.591547    23A     -0.584928    24A     -0.558296
      25A     -0.540862    26A     -0.522029    27A     -0.497190
      28A     -0.482002    29A     -0.479128    30A     -0.473537
      31A     -0.454737    32A     -0.430981

  @DF-RHF Final Energy:  -383.91551847946471

   => Energetics <=

    Nuclear Repulsion Energy =            385.2012538763933662
    One-Electron Energy =               -1286.0860107760838673
    Two-Electron Energy =                 516.9692384202260200
    DFT Exchange-Correlation Energy =       0.0000000000000000
    Empirical Dispersion Energy =           0.0000000000000000
    PCM Polarization Energy =               0.0000000000000000
    EFP Energy =                            0.0000000000000000
    Total Energy =                       -383.9155184794644811

  Mulliken Charges: (a.u.)
   Center  Symbol    Alpha    Beta     Spin     Total
       1     O     4.26283  4.26283  0.00000 -0.52567
       2     C     2.60194  2.60194  0.00000  0.79612
       3     C     3.23253  3.23253  0.00000 -0.46507
       4     O     4.30345  4.30345  0.00000 -0.60690
       5     C     3.14869  3.14869  0.00000 -0.29739
       6     H     0.40551  0.40551  0.00000  0.18897
       7     H     0.39884  0.39884  0.00000  0.20233
       8     C     3.15403  3.15403  0.00000 -0.30806
       9     H     0.41206  0.41206  0.00000  0.17587
      10     H     0.40996  0.40996  0.00000  0.18009
      11     C     3.23948  3.23948  0.00000 -0.47896
      12     H     0.42471  0.42471  0.00000  0.15057
      13     H     0.42313  0.42313  0.00000  0.15375
      14     H     0.41979  0.41979  0.00000  0.16041
      15     H     0.41864  0.41864  0.00000  0.16272
      16     H     0.41913  0.41913  0.00000  0.16174
      17     C     3.10086  3.10086  0.00000 -0.20172
      18     H     0.41482  0.41482  0.00000  0.17035
      19     H     0.39829  0.39829  0.00000  0.20343
      20     H     0.41130  0.41130  0.00000  0.17740

   Total alpha = 32.00000, Total beta = 32.00000, Total charge =  0.00000
