                              Psi4 1.0.54 Driver

  ==> Input File <==

--------------------------------------------------------------------------
set {
	reference rhf
	basis cc-pvtz
}

set_num_threads( 4 )
memory 2 gb

molecule MOL {
0 1

H	 2.614283	 2.028610	 0.296620
O	 3.358864	 1.662087	 -0.142800
C	 3.565468	 0.338079	 0.273842
C	 2.533667	 -0.637565	 -0.272227
H	 4.548038	 0.064914	 -0.086598
H	 3.593945	 0.282242	 1.360360
C	 1.114816	 -0.402372	 0.240993
H	 2.544552	 -0.580764	 -1.356576
H	 2.850574	 -1.642962	 -0.005497
C	 0.113298	 -1.420414	 -0.302504
H	 0.796373	 0.598427	 -0.031033
H	 1.113377	 -0.446476	 1.328807
C	 -1.356301	 -1.018835	 -0.163694
H	 0.334704	 -1.615199	 -1.349053
H	 0.262233	 -2.362511	 0.217825
C	 -1.782905	 0.176840	 -1.013466
H	 -1.970218	 -1.872818	 -0.436359
H	 -1.574452	 -0.812979	 0.881862
C	 -3.276759	 0.475877	 -0.916572
H	 -1.522971	 -0.011915	 -2.052828
H	 -1.228843	 1.062452	 -0.717305
C	 -3.705433	 1.671410	 -1.760865
H	 -3.838914	 -0.401668	 -1.223940
H	 -3.539692	 0.656361	 0.122348
H	 -3.485107	 1.508264	 -2.810663
H	 -4.770184	 1.854216	 -1.671454
H	 -3.188333	 2.574203	 -1.452767

	symmetry c1
}
set optking {
	frozen_dihedral = ("
		14 10 7 4
	")
}

ee,wfn = optimize('scf', return_wfn=True)
oeprop( wfn, 'DIPOLE', 'QUADRUPOLE', 'MULLIKEN_CHARGES')
f=open( 'psi4out.xyz', 'w' )
f.write( "27  " )
f.write( str(ee) + "\n" )
f.write( MOL.save_string_xyz() )
f.close()
--------------------------------------------------------------------------

    Molecular point group: c1
  Charge       = 0
  Multiplicity = 1
  Basis Set: CC-PVTZ
  Basis Set:
  @DF-RHF Final Energy:  -388.42639605589875
    Total Energy =                       -388.4263960558988629
    Molecular point group: c1
  Basis Set: CC-PVTZ
  Basis Set:
  Basis Set: CC-PVTZ
  Basis Set:
  @DF-RHF Final Energy:  -388.42594297934966
    Total Energy =                       -388.4259429793494292
  Basis Set: CC-PVTZ
  Basis Set:
  Basis Set: CC-PVTZ
  Basis Set:
  @DF-RHF Final Energy:  -388.42658549287847
    Total Energy =                       -388.4265854928779618
  Basis Set: CC-PVTZ
  Basis Set:
  Basis Set: CC-PVTZ
  Basis Set:
  @DF-RHF Final Energy:  -388.42666502515681
    Total Energy =                       -388.4266650251572628
  Basis Set: CC-PVTZ
  Basis Set:
  Basis Set: CC-PVTZ
  Basis Set:
  @DF-RHF Final Energy:  -388.42667928706766
    Total Energy =                       -388.4266792870682821
  Basis Set: CC-PVTZ
  Basis Set:
  Basis Set: CC-PVTZ
  Basis Set:
  @DF-RHF Final Energy:  -388.42668527164648
    Total Energy =                       -388.4266852716465337
  Basis Set: CC-PVTZ
  Basis Set:
  Charge       = 0
  Multiplicity = 1
  Basis Set: CC-PVTZ
  Basis Set:

    Orbital Energies (a.u.)
    -----------------------

    Doubly Occupied:

       1A    -20.545412     2A    -11.264957     3A    -11.216648
       4A    -11.214568     5A    -11.213538     6A    -11.213400
       7A    -11.213297     8A    -11.211390     9A    -11.206769
      10A     -1.363289    11A     -1.095682    12A     -1.062304
      13A     -1.012321    14A     -0.949415    15A     -0.888177
      16A     -0.820845    17A     -0.799910    18A     -0.780467
      19A     -0.696935    20A     -0.647556    21A     -0.640991
      22A     -0.616039    23A     -0.605115    24A     -0.582444
      25A     -0.580062    26A     -0.554425    27A     -0.541004
      28A     -0.529918    29A     -0.506496    30A     -0.495966
      31A     -0.484154    32A     -0.473936    33A     -0.470346
      34A     -0.461051    35A     -0.451557    36A     -0.442170
      37A     -0.425793

  @DF-RHF Final Energy:  -388.42668563981215

   => Energetics <=

    Nuclear Repulsion Energy =            460.8308978706171501
    One-Electron Energy =               -1439.9584705375236808
    Two-Electron Energy =                 590.7008870270939269
    DFT Exchange-Correlation Energy =       0.0000000000000000
    Empirical Dispersion Energy =           0.0000000000000000
    PCM Polarization Energy =               0.0000000000000000
    EFP Energy =                            0.0000000000000000
    Total Energy =                       -388.4266856398126038
    Molecular point group: c1
  Basis Set: CC-PVTZ
  Basis Set:

  -Total Gradient:
     Atom            X                  Y                   Z
    ------   -----------------  -----------------  -----------------
       1       -0.000014570964     0.000005873641     0.000004728854
       2       -0.000026847825    -0.000024507300     0.000021565056
       3        0.000042677069    -0.000027218193    -0.000060141015
       4       -0.000384197633     0.001396803543    -0.001636147773
       5        0.000010295036    -0.000005657600     0.000001183915
       6       -0.000021649689     0.000011624594    -0.000024148568
       7        0.000969701506    -0.002482044191     0.002523818777
       8        0.000019249822     0.000005496382     0.000020211157
       9        0.000000209818     0.000014890376     0.000006263748
      10       -0.002423112229     0.003415915684    -0.001580230662
      11        0.000016256946    -0.000022370819     0.000014740422
      12        0.000009460690     0.000012392248    -0.000018136429
      13        0.000007418019    -0.000006936995    -0.000009168928
      14        0.001828229338    -0.002307771794     0.000728573348
      15       -0.000007163550     0.000019049986     0.000002840086
      16        0.000002511491    -0.000011984238    -0.000016490229
      17        0.000000924043     0.000005424740     0.000001811865
      18       -0.000005876544     0.000007277206    -0.000006301076
      19       -0.000005787454     0.000013186012     0.000017009456
      20        0.000003810319     0.000004645212     0.000020619619
      21       -0.000037413289    -0.000026404508    -0.000006964713
      22        0.000003890794    -0.000002433356    -0.000004333557
      23        0.000017237544     0.000014144781     0.000001599369
      24       -0.000001977226    -0.000004108724    -0.000013209646
      25        0.000000316757     0.000005273220     0.000015730159
      26        0.000004527030    -0.000001093626    -0.000003356495
      27       -0.000008119814    -0.000009466273    -0.000002066741

  **** Optimization is complete! (in 7 steps) ****
    Final optimized geometry and variables:
    Molecular point group: c1

    Geometry (in Angstrom), charge = 0, multiplicity = 1:

    H            2.568509266071     1.844598835681     0.967435081612
    O            3.307058422966     1.512615232540     0.492015026913
    C            3.492819901993     0.150367733967     0.773192683304
    C            2.443650139391    -0.748055402910     0.136092012185
    H            4.470232461400    -0.101364595213     0.384236769697
    H            3.521726201430    -0.014155624956     1.848495335375
    C            1.025234984535    -0.522233481539     0.654631520231
    H            2.463189355250    -0.596631025606    -0.938568253498
    H            2.735874984248    -1.780560722806     0.314875518854
    C            0.013433099857    -1.512426955249     0.072549656689
    H            0.722961063676     0.490782424632     0.410328235063
    H            1.011678749701    -0.596122481535     1.739859603555
    C           -1.453977152455    -1.121654850029     0.254111926862
    H            0.228783162147    -1.674841176219    -0.980433621274
    H            0.175836975771    -2.476412573037     0.547380356140
    C           -1.928681084557     0.021315659994    -0.641521847053
    H           -2.070992929443    -1.992958350930     0.053880583209
    H           -1.629393375274    -0.862360400313     1.295972056497
    C           -3.404275991730     0.360616520589    -0.447515554997
    H           -1.758024951841    -0.248545544258    -1.681116112466
    H           -1.336950211478     0.913161496244    -0.459138440775
    C           -3.882994990730     1.493392736238    -1.349376705139
    H           -4.003928925358    -0.525962899698    -0.634599499308
    H           -3.576852892340     0.630176481725     0.590967145424
    H           -3.755228838519     1.240403173937    -2.396626694538
    H           -4.933085166212     1.707960086325    -1.187211779138
    H           -3.326507400182     2.405629039254    -1.161378742969

  Mulliken Charges: (a.u.)
   Center  Symbol    Alpha    Beta     Spin     Total
       1     H     0.39213  0.39213  0.00000  0.21574
       2     O     4.20565  4.20565  0.00000 -0.41131
       3     C     2.97950  2.97950  0.00000  0.04100
       4     C     3.08973  3.08973  0.00000 -0.17946
       5     H     0.44902  0.44902  0.00000  0.10196
       6     H     0.46936  0.46936  0.00000  0.06127
       7     C     3.10234  3.10234  0.00000 -0.20468
       8     H     0.45051  0.45051  0.00000  0.09898
       9     H     0.45541  0.45541  0.00000  0.08918
      10     C     3.10076  3.10076  0.00000 -0.20152
      11     H     0.45681  0.45681  0.00000  0.08637
      12     H     0.45167  0.45167  0.00000  0.09667
      13     C     3.09813  3.09813  0.00000 -0.19626
      14     H     0.45248  0.45248  0.00000  0.09504
      15     H     0.44764  0.44764  0.00000  0.10473
      16     C     3.08656  3.08656  0.00000 -0.17311
      17     H     0.44740  0.44740  0.00000  0.10520
      18     H     0.45467  0.45467  0.00000  0.09066
      19     C     3.08462  3.08462  0.00000 -0.16925
      20     H     0.45437  0.45437  0.00000  0.09125
      21     H     0.45432  0.45432  0.00000  0.09136
      22     C     3.14952  3.14952  0.00000 -0.29905
      23     H     0.45395  0.45395  0.00000  0.09210
      24     H     0.45470  0.45470  0.00000  0.09060
      25     H     0.45488  0.45488  0.00000  0.09023
      26     H     0.44841  0.44841  0.00000  0.10318
      27     H     0.45544  0.45544  0.00000  0.08912

   Total alpha = 37.00000, Total beta = 37.00000, Total charge = -0.00000

*** Psi4 exiting successfully. Buy a developer a beer!
