  ==> Input File <==

--------------------------------------------------------------------------
set {
	reference rhf
	basis 6-31G*
}

set_num_threads( 4 )
memory 2 gb

molecule MOL {
0 1

H	 -3.161837	 0.500524	 -0.000234
C	 -2.367097	 -0.232926	 -0.000000
O	 -1.158440	 0.455814	 -0.000122
H	 -2.468853	 -0.861886	 -0.882833
H	 -2.468942	 -0.861421	 0.883154
C	 -0.029776	 -0.365156	 0.000148
C	 1.212217	 0.508981	 0.000007
H	 -0.036772	 -1.013236	 -0.877259
H	 -0.036869	 -1.012778	 0.877897
C	 1.505911	 1.107298	 1.375013
H	 2.053808	 -0.088760	 -0.336283
H	 1.076911	 1.299315	 -0.731953
H	 1.668863	 0.331743	 2.118238
H	 2.396338	 1.726275	 1.345775
H	 0.684627	 1.729209	 1.720157

	symmetry c1
}
set optking {
	frozen_dihedral = ("
		11 7 6 8
	")
}

ee = optimize('scf')
oeprop('DIPOLE', 'QUADRUPOLE', 'MULLIKEN_CHARGES')
f=open( 'psi4out.xyz', 'w' )
f.write( "15  " )
f.write( str(ee) + "\n" )
f.write( MOL.save_string_xyz() )
f.close()
--------------------------------------------------------------------------

    Molecular point group: c1
  Charge       = 0
  Multiplicity = 1
  Basis Set: 6-31G*
  Basis Set:
  @DF-RHF Final Energy:  -232.13861390922838
    Total Energy =                       -232.1386139092284111
    Molecular point group: c1
  Basis Set: 6-31G*
  Basis Set:
  Basis Set: 6-31G*
  Basis Set:
  @DF-RHF Final Energy:  -232.13879802890420
    Total Energy =                       -232.1387980289042048
  Basis Set: 6-31G*
  Basis Set:
  Basis Set: 6-31G*
  Basis Set:
  @DF-RHF Final Energy:  -232.13885454138725
    Total Energy =                       -232.1388545413872180
  Basis Set: 6-31G*
  Basis Set:
  Charge       = 0
  Multiplicity = 1
  Basis Set: 6-31G*
  Basis Set:

    Orbital Energies (a.u.)
    -----------------------

    Doubly Occupied:

       1A    -20.554601     2A    -11.266500     3A    -11.264601
       4A    -11.214539     5A    -11.205205     6A     -1.379148
       7A     -1.054103     8A     -0.951390     9A     -0.884905
      10A     -0.801773    11A     -0.667739    12A     -0.663173
      13A     -0.632743    14A     -0.587504    15A     -0.572119
      16A     -0.545825    17A     -0.497186    18A     -0.484850
      19A     -0.480092    20A     -0.459786    21A     -0.412924

  @DF-RHF Final Energy:  -232.13885508869689

   => Energetics <=

    Nuclear Repulsion Energy =            192.3545440604580961
    One-Electron Energy =                -695.8253845234885375
    Two-Electron Energy =                 271.3319853743336125
    DFT Exchange-Correlation Energy =       0.0000000000000000
    Empirical Dispersion Energy =           0.0000000000000000
    PCM Polarization Energy =               0.0000000000000000
    EFP Energy =                            0.0000000000000000
    Total Energy =                       -232.1388550886968005
    Molecular point group: c1
  Basis Set: 6-31G*
  Basis Set:

  -Total Gradient:
     Atom            X                  Y                   Z
    ------   -----------------  -----------------  -----------------
       1       -0.000030841227    -0.000013845115    -0.000002804588
       2       -0.000020137279     0.000037515947     0.000011261156
       3        0.000015290301    -0.000028216295     0.000019821960
       4        0.000003229081    -0.000000740031     0.000001403777
       5       -0.000003832502    -0.000003467420    -0.000004768558
       6       -0.001971374607     0.003108845549    -0.002777053011
       7        0.001070785325    -0.001703944518     0.004133314915
       8        0.001552406847    -0.002299935536     0.001650545110
       9       -0.000035397833     0.000017780257     0.000011566588
      10       -0.000034895755    -0.000011274467     0.000017719715
      11       -0.000543462882     0.000901329576    -0.003033584768
      12        0.000001615685     0.000007466315    -0.000018003907
      13        0.000013404444     0.000007465585     0.000005036278
      14       -0.000013482343    -0.000012691822    -0.000025062394
      15       -0.000003307259    -0.000006288025     0.000010607727

  **** Optimization is complete! (in 4 steps) ****
    Final optimized geometry and variables:
    Molecular point group: c1

    Geometry (in Angstrom), charge = 0, multiplicity = 1:

    H           -2.955814747315     0.225425244739    -0.255730041121
    C           -2.164340859748    -0.511580512709    -0.261491819051
    O           -0.952325833953     0.170971077897    -0.286545901771
    H           -2.282219491003    -1.147262545057    -1.137422093058
    H           -2.254717701927    -1.132245605455     0.628266215557
    C            0.172521362895    -0.655650361221    -0.304354850146
    C            1.424867536969     0.206665961585    -0.267063915849
    H            0.171939120814    -1.290179964096    -1.190715783282
    H            0.153427723206    -1.327035959098     0.555956133150
    C            1.694007411834     0.826536071839     1.101897231536
    H            2.271335918977    -0.390408845518    -0.597403740972
    H            1.303901962639     0.991488220127    -1.008351679264
    H            1.870287870624     0.060136336020     1.851842326326
    H            2.568210349135     1.469384210038     1.074160379811
    H            0.848094882129     1.423122274015     1.424311767241

  Mulliken Charges: (a.u.)
   Center  Symbol    Alpha    Beta     Spin     Total
       1     H     0.41217  0.41217  0.00000  0.17566
       2     C     3.07914  3.07914  0.00000 -0.15828
       3     O     4.30356  4.30356  0.00000 -0.60712
       4     H     0.43023  0.43023  0.00000  0.13954
       5     H     0.42999  0.42999  0.00000  0.14002
       6     C     2.98927  2.98927  0.00000  0.02146
       7     C     3.16062  3.16062  0.00000 -0.32124
       8     H     0.43013  0.43013  0.00000  0.13975
       9     H     0.43377  0.43377  0.00000  0.13246
      10     C     3.24252  3.24252  0.00000 -0.48505
      11     H     0.42254  0.42254  0.00000  0.15491
      12     H     0.41240  0.41240  0.00000  0.17521
      13     H     0.42421  0.42421  0.00000  0.15159
      14     H     0.41976  0.41976  0.00000  0.16049
      15     H     0.40969  0.40969  0.00000  0.18061

   Total alpha = 21.00000, Total beta = 21.00000, Total charge =  0.00000
