  ==> Input File <==

--------------------------------------------------------------------------
set {
	reference rhf
	basis cc-pvtz
}

set_num_threads( 4 )
memory 2 gb

molecule MOL {
0 1

H	 2.661055	 0.109157	 0.594138
O	 2.063695	 -0.083403	 -0.105237
C	 0.742924	 0.005675	 0.350750
H	 0.731380	 0.039219	 1.440080
C	 -0.064076	 -1.193495	 -0.124425
C	 -0.047832	 1.190568	 -0.194462
H	 0.194729	 -1.376165	 -1.161308
H	 0.163013	 -2.094508	 0.429933
C	 -1.533112	 -0.752002	 0.006102
H	 0.148003	 1.266545	 -1.259275
H	 0.226235	 2.136493	 0.259722
C	 -1.506634	 0.799189	 0.067162
H	 -2.124360	 -1.110499	 -0.826089
H	 -1.983103	 -1.158030	 0.903403
H	 -2.183808	 1.252169	 -0.644677
H	 -1.813926	 1.138698	 1.049457

	symmetry c1
}
set optking {
	frozen_dihedral = ("
		1 2 3 6
	")
}

ee = optimize('scf')
oeprop('DIPOLE', 'QUADRUPOLE', 'MULLIKEN_CHARGES')
f=open( 'psi4out.xyz', 'w' )
f.write( "16  " )
f.write( str(ee) + "\n" )
f.write( MOL.save_string_xyz() )
f.close()
--------------------------------------------------------------------------

    Molecular point group: c1
  Charge       = 0
  Multiplicity = 1
  Basis Set: CC-PVTZ
  Basis Set:
  @DF-RHF Final Energy:  -270.11541193323797
    Total Energy =                       -270.1154119332377945
    Molecular point group: c1
  Basis Set: CC-PVTZ
  Basis Set:
  Basis Set: CC-PVTZ
  Basis Set:
  @DF-RHF Final Energy:  -270.11561002195708
    Total Energy =                       -270.1156100219569680
  Basis Set: CC-PVTZ
  Basis Set:
  Basis Set: CC-PVTZ
  Basis Set:
  @DF-RHF Final Energy:  -270.11562816285834
    Total Energy =                       -270.1156281628581155
  Basis Set: CC-PVTZ
  Basis Set:
  Charge       = 0
  Multiplicity = 1
  Basis Set: CC-PVTZ
  Basis Set:

    Orbital Energies (a.u.)
    -----------------------

    Doubly Occupied:

       1A    -20.545090     2A    -11.268242     3A    -11.212758
       4A    -11.212025     5A    -11.206220     6A    -11.205946
       7A     -1.364698     8A     -1.113578     9A     -0.964178
      10A     -0.949228    11A     -0.782662    12A     -0.777621
      13A     -0.717809    14A     -0.653477    15A     -0.621549
      16A     -0.579747    17A     -0.552490    18A     -0.530204
      19A     -0.521729    20A     -0.479235    21A     -0.469184
      22A     -0.456508    23A     -0.452499    24A     -0.413418

  @DF-RHF Final Energy:  -270.11562892654359

   => Energetics <=

    Nuclear Repulsion Energy =            255.3363418373831450
    One-Electron Energy =                -872.8037482621596155
    Two-Electron Energy =                 347.3517774982329342
    DFT Exchange-Correlation Energy =       0.0000000000000000
    Empirical Dispersion Energy =           0.0000000000000000
    PCM Polarization Energy =               0.0000000000000000
    EFP Energy =                            0.0000000000000000
    Total Energy =                       -270.1156289265435930
    Molecular point group: c1
  Basis Set: CC-PVTZ
  Basis Set:

  -Total Gradient:
     Atom            X                  Y                   Z
    ------   -----------------  -----------------  -----------------
       1        0.000040288143    -0.000914538360     0.000195398774
       2       -0.000132597292     0.000989151883    -0.000405924711
       3        0.000360840663     0.000267713140     0.000661033811
       4       -0.000009394598    -0.000002668592    -0.000004163329
       5       -0.000040872778     0.000039190059    -0.000002013822
       6       -0.000156350947    -0.000364470243    -0.000498496470
       7        0.000008292861    -0.000006079266    -0.000012284927
       8        0.000006493876     0.000008323277     0.000001561507
       9        0.000018886256     0.000034797768     0.000000477576
      10        0.000023136837    -0.000010059870     0.000017474773
      11        0.000008110022    -0.000019429752     0.000008002700
      12       -0.000082398573    -0.000011417171     0.000023068625
      13       -0.000001693251     0.000000588644     0.000002316235
      14       -0.000008530102     0.000012848802     0.000001883896
      15       -0.000014736813    -0.000011631711     0.000001593960
      16       -0.000019474302    -0.000012318608     0.000010071402

  **** Optimization is complete! (in 4 steps) ****
    Final optimized geometry and variables:
    Molecular point group: c1

    Geometry (in Angstrom), charge = 0, multiplicity = 1:

    H            2.671105596844     0.142259258925     0.568311087522
    O            2.064587528861    -0.052345470613    -0.119647822157
    C            0.743541174193     0.002519165831     0.351430621430
    H            0.739953970622     0.035421937187     1.439111137328
    C           -0.071805433909    -1.195539263473    -0.122241650944
    C           -0.044880028236     1.188753715748    -0.191445133694
    H            0.192272383432    -1.382244496807    -1.157149932255
    H            0.148719473402    -2.097401001732     0.434512685377
    C           -1.539272281638    -0.748600493693    -0.001588395672
    H            0.158991219703     1.265318047855    -1.254373007188
    H            0.234962457299     2.131076113500     0.264138224862
    C           -1.505728726387     0.802657393302     0.061364776495
    H           -2.126441936905    -1.103063935861    -0.838435477526
    H           -1.998027335286    -1.153639914162     0.891886975848
    H           -2.178352322709     1.258447421745    -0.653021898012
    H           -1.817244052202     1.141740009659     1.042761443622

  Mulliken Charges: (a.u.)
   Center  Symbol    Alpha    Beta     Spin     Total
       1     H     0.39191  0.39191  0.00000  0.21617
       2     O     4.20419  4.20419  0.00000 -0.40837
       3     C     2.92135  2.92135  0.00000  0.15731
       4     H     0.46985  0.46985  0.00000  0.06030
       5     C     3.10108  3.10108  0.00000 -0.20216
       6     C     3.09488  3.09488  0.00000 -0.18975
       7     H     0.45178  0.45178  0.00000  0.09644
       8     H     0.44646  0.44646  0.00000  0.10707
       9     C     3.11086  3.11086  0.00000 -0.22172
      10     H     0.45361  0.45361  0.00000  0.09278
      11     H     0.44974  0.44974  0.00000  0.10051
      12     C     3.11462  3.11462  0.00000 -0.22923
      13     H     0.44553  0.44553  0.00000  0.10895
      14     H     0.44921  0.44921  0.00000  0.10158
      15     H     0.44365  0.44365  0.00000  0.11269
      16     H     0.45128  0.45128  0.00000  0.09744

   Total alpha = 24.00000, Total beta = 24.00000, Total charge = -0.00000
