  ==> Input File <==

--------------------------------------------------------------------------
set {
	reference rhf
	basis 6-31G*
}

set_num_threads( 1 )
memory 2 gb

molecule MOL {
0 1

H	 -3.261111	 -0.295142	 1.469456
C	 -3.306842	 -0.277400	 0.373456
C	 -2.660244	 0.921717	 -0.272021
O	 -3.838538	 -1.161155	 -0.216482
C	 -1.220012	 1.144545	 0.209990
H	 -2.705793	 0.797307	 -1.347733
H	 -3.263782	 1.790044	 -0.010477
C	 -0.252658	 0.041456	 -0.226725
H	 -0.873521	 2.100229	 -0.171974
H	 -1.211708	 1.231594	 1.295398
C	 1.180775	 0.282413	 0.250794
H	 -0.266029	 -0.034465	 -1.312038
H	 -0.597733	 -0.921000	 0.146291
C	 2.148627	 -0.814315	 -0.201312
H	 1.516199	 1.249228	 -0.115937
H	 1.192670	 0.346017	 1.338083
C	 3.580890	 -0.659131	 0.322722
H	 2.166869	 -0.852443	 -1.289387
H	 1.762857	 -1.776509	 0.128956
C	 3.723929	 0.296773	 1.508220
H	 4.206731	 -0.300558	 -0.490725
H	 3.971912	 -1.636713	 0.597234
H	 3.325693	 1.279024	 1.267680
H	 3.202259	 -0.065479	 2.387770
H	 4.768190	 0.421497	 1.778327

	symmetry c1
}
set optking {
	frozen_dihedral = ("
		6 3 5 8,
		6 3 2 4,
		3 5 8 12,
		12 8 11 14,
		8 11 14 18
	")
}

ee = energy('scf')
oeprop('DIPOLE', 'QUADRUPOLE', 'MULLIKEN_CHARGES')
f=open( 'psi4out.xyz', 'w' )
f.write( "25  " )
f.write( str(ee) + "\n" )
f.write( MOL.save_string_xyz() )
f.close()
--------------------------------------------------------------------------

    Molecular point group: c1

    Geometry (in Angstrom), charge = 0, multiplicity = 1:

       Center              X                  Y                   Z               Mass
    ------------   -----------------  -----------------  -----------------  -----------------
           H         -3.190702283213    -0.264068267850     1.267815718700     1.007825032070
           C         -3.236433283213    -0.246326267850     0.171815718700    12.000000000000
           C         -2.589835283213     0.952790732150    -0.473661281300    12.000000000000
           O         -3.768129283213    -1.130081267850    -0.418122281300    15.994914619560
           C         -1.149603283213     1.175618732150     0.008349718700    12.000000000000
           H         -2.635384283213     0.828380732150    -1.549373281300     1.007825032070
           H         -3.193373283213     1.821117732150    -0.212117281300     1.007825032070
           C         -0.182249283213     0.072529732150    -0.428365281300    12.000000000000
           H         -0.803112283213     2.131302732150    -0.373614281300     1.007825032070
           H         -1.141299283213     1.262667732150     1.093757718700     1.007825032070
           C          1.251183716787     0.313486732150     0.049153718700    12.000000000000
           H         -0.195620283213    -0.003391267850    -1.513678281300     1.007825032070
           H         -0.527324283213    -0.889926267850    -0.055349281300     1.007825032070
           C          2.219035716787    -0.783241267850    -0.402952281300    12.000000000000
           H          1.586607716787     1.280301732150    -0.317577281300     1.007825032070
           H          1.263078716787     0.377090732150     1.136442718700     1.007825032070
           C          3.651298716787    -0.628057267850     0.121081718700    12.000000000000
           H          2.237277716787    -0.821369267850    -1.491027281300     1.007825032070
           H          1.833265716787    -1.745435267850    -0.072684281300     1.007825032070
           C          3.794337716787     0.327846732150     1.306579718700    12.000000000000
           H          4.277139716787    -0.269484267850    -0.692365281300     1.007825032070
           H          4.042320716787    -1.605639267850     0.395593718700     1.007825032070
           H          3.396101716787     1.310097732150     1.066039718700     1.007825032070
           H          3.272667716787    -0.034405267850     2.186129718700     1.007825032070
           H          4.838598716787     0.452570732150     1.576686718700     1.007825032070

  Charge       = 0
  Multiplicity = 1
  Basis Set: 6-31G*
  Basis Set:

    Orbital Energies (a.u.)
    -----------------------

    Doubly Occupied:

       1A    -20.561855     2A    -11.325998     3A    -11.235068
       4A    -11.234412     5A    -11.223187     6A    -11.219297
       7A    -11.216801     8A    -11.215795     9A    -11.210362
      10A     -1.401834    11A     -1.104346    12A     -1.070634
      13A     -1.011123    14A     -0.940684    15A     -0.880619
      16A     -0.823921    17A     -0.787721    18A     -0.771772
      19A     -0.664668    20A     -0.663972    21A     -0.638428
      22A     -0.623618    23A     -0.607123    24A     -0.587209
      25A     -0.570472    26A     -0.558803    27A     -0.530787
      28A     -0.522456    29A     -0.515833    30A     -0.495425
      31A     -0.490337    32A     -0.480860    33A     -0.461613
      34A     -0.449532    35A     -0.442575    36A     -0.409382

  @DF-RHF Final Energy:  -387.11349150822423

   => Energetics <=

    Nuclear Repulsion Energy =            442.3447625922029829
    One-Electron Energy =               -1401.0194799718360628
    Two-Electron Energy =                 571.5612258714085101
    DFT Exchange-Correlation Energy =       0.0000000000000000
    Empirical Dispersion Energy =           0.0000000000000000
    PCM Polarization Energy =               0.0000000000000000
    EFP Energy =                            0.0000000000000000
    Total Energy =                       -387.1134915082245698

  Mulliken Charges: (a.u.)
   Center  Symbol    Alpha    Beta     Spin     Total
       1     H     0.43266  0.43266  0.00000  0.13468
       2     C     2.83081  2.83081  0.00000  0.33838
       3     C     3.20808  3.20808  0.00000 -0.41616
       4     O     4.23779  4.23779  0.00000 -0.47557
       5     C     3.16653  3.16653  0.00000 -0.33306
       6     H     0.39970  0.39970  0.00000  0.20059
       7     H     0.40676  0.40676  0.00000  0.18647
       8     C     3.15364  3.15364  0.00000 -0.30728
       9     H     0.41306  0.41306  0.00000  0.17388
      10     H     0.41976  0.41976  0.00000  0.16048
      11     C     3.15835  3.15835  0.00000 -0.31670
      12     H     0.41844  0.41844  0.00000  0.16312
      13     H     0.41857  0.41857  0.00000  0.16287
      14     C     3.15489  3.15489  0.00000 -0.30978
      15     H     0.42231  0.42231  0.00000  0.15538
      16     H     0.41953  0.41953  0.00000  0.16093
      17     C     3.15391  3.15391  0.00000 -0.30783
      18     H     0.41974  0.41974  0.00000  0.16052
      19     H     0.42104  0.42104  0.00000  0.15792
      20     C     3.24536  3.24536  0.00000 -0.49072
      21     H     0.42120  0.42120  0.00000  0.15759
      22     H     0.41913  0.41913  0.00000  0.16175
      23     H     0.41938  0.41938  0.00000  0.16124
      24     H     0.42131  0.42131  0.00000  0.15738
      25     H     0.41805  0.41805  0.00000  0.16391

   Total alpha = 36.00000, Total beta = 36.00000, Total charge = -0.00000
