                              Psi4 1.0.54 Driver

  ==> Input File <==

--------------------------------------------------------------------------
set {
	reference rhf
	basis cc-pvtz
}

set_num_threads( 4 )
memory 2 gb

molecule MOL {
0 1

H	 3.275308	 0.173574	 -0.055714
N	 2.433987	 -0.362316	 -0.080024
C	 1.263552	 0.494993	 0.021953
H	 2.472226	 -1.005443	 0.683036
C	 -0.016533	 -0.325589	 -0.026925
H	 1.280915	 1.180773	 -0.818522
H	 1.263064	 1.106893	 0.925038
C	 -1.280353	 0.525521	 0.047747
H	 -0.016686	 -0.912532	 -0.939714
H	 -0.014099	 -1.037598	 0.796369
C	 -2.560681	 -0.301323	 -0.007747
H	 -1.279957	 1.241025	 -0.770189
H	 -1.270445	 1.110526	 0.963468
H	 -2.617064	 -0.872870	 -0.928010
H	 -3.439525	 0.331102	 0.043462
H	 -2.609427	 -1.002736	 0.818585

	symmetry c1
}
set optking {
	frozen_dihedral = ("
		1 2 3 6
	")
}

ee,wfn = optimize('scf', return_wfn=True)
oeprop( wfn, 'DIPOLE', 'QUADRUPOLE', 'MULLIKEN_CHARGES')
f=open( 'psi4out.xyz', 'w' )
f.write( "16  " )
f.write( str(ee) + "\n" )
f.write( MOL.save_string_xyz() )
f.close()
--------------------------------------------------------------------------

    Molecular point group: c1
  Charge       = 0
  Multiplicity = 1
  Basis Set: CC-PVTZ
  Basis Set:
  @DF-RHF Final Energy:  -212.40030708673498
    Total Energy =                       -212.4003070867349265
    Molecular point group: c1
  Basis Set: CC-PVTZ
  Basis Set:
  Basis Set: CC-PVTZ
  Basis Set:
  @DF-RHF Final Energy:  -212.40030995205109
    Total Energy =                       -212.4003099520509750
  Basis Set: CC-PVTZ
  Basis Set:
  Charge       = 0
  Multiplicity = 1
  Basis Set: CC-PVTZ
  Basis Set:

    Orbital Energies (a.u.)
    -----------------------

    Doubly Occupied:

       1A    -15.526617     2A    -11.238038     3A    -11.213163
       4A    -11.208347     5A    -11.206038     6A     -1.178455
       7A     -1.061047     8A     -0.959889     9A     -0.844275
      10A     -0.792748    11A     -0.664278    12A     -0.639783
      13A     -0.606246    14A     -0.576472    15A     -0.566405
      16A     -0.525087    17A     -0.501504    18A     -0.470365
      19A     -0.465494    20A     -0.462555    21A     -0.384418

  @DF-RHF Final Energy:  -212.40031026302279

   => Energetics <=

    Nuclear Repulsion Energy =            186.5925652374073707
    One-Electron Energy =                -655.8033006662622029
    Two-Electron Energy =                 256.8104251658322141
    DFT Exchange-Correlation Energy =       0.0000000000000000
    Empirical Dispersion Energy =           0.0000000000000000
    PCM Polarization Energy =               0.0000000000000000
    EFP Energy =                            0.0000000000000000
    Total Energy =                       -212.4003102630226181
    Molecular point group: c1
  Basis Set: CC-PVTZ
  Basis Set:

  -Total Gradient:
     Atom            X                  Y                   Z
    ------   -----------------  -----------------  -----------------
       1       -0.000001590763    -0.000060080323     0.000397139342
       2       -0.000069561642     0.000014280792    -0.000513301704
       3        0.000287830285     0.000236835853     0.000296643778
       4        0.000003942017     0.000020116998    -0.000010452864
       5        0.000016820954     0.000030435400    -0.000001382478
       6       -0.000206399009    -0.000214559802    -0.000209802083
       7       -0.000012349248    -0.000011597692     0.000019889077
       8       -0.000007173578    -0.000014385906     0.000026212335
       9        0.000002203143     0.000000565078    -0.000004467283
      10       -0.000012513103    -0.000000658862     0.000009048411
      11       -0.000002095539     0.000006552877    -0.000014061934
      12        0.000000977477    -0.000010412199     0.000003381557
      13        0.000001111326     0.000001742754     0.000003955962
      14       -0.000000368523    -0.000005829864    -0.000000694122
      15       -0.000003891375     0.000001007647    -0.000005405014
      16        0.000003057577     0.000005987249     0.000003297020

  **** Optimization is complete! (in 3 steps) ****
    Final optimized geometry and variables:
    Molecular point group: c1

    Geometry (in Angstrom), charge = 0, multiplicity = 1:

    H            3.275247665446     0.173303960774    -0.059077722803
    N            2.433672318197    -0.362529743140    -0.082465270853
    C            1.264110015512     0.495500723259     0.024454398392
    H            2.474379241239    -1.002677759372     0.683185903561
    C           -0.016106468412    -0.324862103649    -0.027083998680
    H            1.279025414097     1.183570919686    -0.814269863137
    H            1.264246622401     1.103075052920     0.930404687033
    C           -1.279918083750     0.526354716752     0.045877602457
    H           -0.015138886273    -0.910945666183    -0.940467578057
    H           -0.015645961817    -1.037279834936     0.795916629468
    C           -2.560111719169    -0.300761706959    -0.007407711027
    H           -1.279663854961     1.239834736614    -0.773731720285
    H           -1.269720360412     1.113267568951     0.960343086220
    H           -2.616754675365    -0.874195631756    -0.926485927765
    H           -3.438994208806     0.331722055615     0.042806756896
    H           -2.608464051261    -1.000422298807     0.820432900470

  Mulliken Charges: (a.u.)
   Center  Symbol    Alpha    Beta     Spin     Total
       1     H     0.43058  0.43058  0.00000  0.13884
       2     N     3.68873  3.68873  0.00000 -0.37746
       3     C     3.02516  3.02516  0.00000 -0.05032
       4     H     0.43117  0.43117  0.00000  0.13767
       5     C     3.08092  3.08092  0.00000 -0.16184
       6     H     0.45734  0.45734  0.00000  0.08531
       7     H     0.46904  0.46904  0.00000  0.06193
       8     C     3.08839  3.08839  0.00000 -0.17678
       9     H     0.44922  0.44922  0.00000  0.10156
      10     H     0.46088  0.46088  0.00000  0.07824
      11     C     3.14924  3.14924  0.00000 -0.29848
      12     H     0.45455  0.45455  0.00000  0.09090
      13     H     0.45639  0.45639  0.00000  0.08722
      14     H     0.45415  0.45415  0.00000  0.09169
      15     H     0.44876  0.44876  0.00000  0.10248
      16     H     0.45549  0.45549  0.00000  0.08903

   Total alpha = 21.00000, Total beta = 21.00000, Total charge = -0.00000

*** Psi4 exiting successfully. Buy a developer a beer!
