                              Psi4 1.0.54 Driver

  ==> Input File <==

--------------------------------------------------------------------------
set {
	reference rhf
	basis cc-pvtz
}

set_num_threads( 4 )
memory 2 gb

molecule MOL {
0 1

O	 0.752744	 1.299769	 0.108014
C	 0.576499	 0.134701	 -0.003900
C	 -0.765656	 -0.550508	 -0.002152
O	 1.561308	 -0.738095	 -0.139363
C	 -1.945526	 0.411052	 0.000603
H	 -0.794329	 -1.203792	 -0.868145
H	 -0.791555	 -1.205429	 0.862701
C	 -3.282915	 -0.321280	 0.002596
H	 -1.880300	 1.059126	 -0.864925
H	 -1.877207	 1.057892	 0.866807
H	 -3.388495	 -0.952755	 -0.873419
H	 -4.107811	 0.380864	 0.004116
H	 -3.385717	 -0.953283	 0.878571
C	 2.880648	 -0.230968	 -0.152605
H	 3.016863	 0.455186	 -0.975219
H	 3.526291	 -1.085982	 -0.270012
H	 3.102080	 0.279483	 0.772840

	symmetry c1
}
set optking {
	frozen_dihedral = ("
		1 2 3 6
	")
}

ee,wfn = optimize('scf', return_wfn=True)
oeprop( wfn, 'DIPOLE', 'QUADRUPOLE', 'MULLIKEN_CHARGES')
f=open( 'psi4out.xyz', 'w' )
f.write( "17  " )
f.write( str(ee) + "\n" )
f.write( MOL.save_string_xyz() )
f.close()
--------------------------------------------------------------------------

    Molecular point group: c1
  Charge       = 0
  Multiplicity = 1
  Basis Set: CC-PVTZ
  Basis Set:
  @DF-RHF Final Energy:  -345.03537136014472
    Total Energy =                       -345.0353713601446088
    Molecular point group: c1
  Basis Set: CC-PVTZ
  Basis Set:
  Basis Set: CC-PVTZ
  Basis Set:
  @DF-RHF Final Energy:  -345.03537964795220
    Total Energy =                       -345.0353796479522543
  Basis Set: CC-PVTZ
  Basis Set:
  Basis Set: CC-PVTZ
  Basis Set:
  @DF-RHF Final Energy:  -345.03533371759983
    Total Energy =                       -345.0353337175996558
  Basis Set: CC-PVTZ
  Basis Set:
  Basis Set: CC-PVTZ
  Basis Set:
  @DF-RHF Final Energy:  -345.03538689920242
    Total Energy =                       -345.0353868992025355
  Basis Set: CC-PVTZ
  Basis Set:
  Charge       = 0
  Multiplicity = 1
  Basis Set: CC-PVTZ
  Basis Set:

    Orbital Energies (a.u.)
    -----------------------

    Doubly Occupied:

       1A    -20.596748     2A    -20.534447     3A    -11.364969
       4A    -11.278767     5A    -11.234351     6A    -11.220205
       7A    -11.212780     8A     -1.472614     9A     -1.366176
      10A     -1.081786    11A     -1.002575    12A     -0.940400
      13A     -0.827923    14A     -0.769429    15A     -0.702646
      16A     -0.686673    17A     -0.676280    18A     -0.637740
      19A     -0.596861    20A     -0.575878    21A     -0.569513
      22A     -0.528887    23A     -0.523241    24A     -0.500524
      25A     -0.487822    26A     -0.479682    27A     -0.460145
      28A     -0.441424

  @DF-RHF Final Energy:  -345.03538704974426

   => Energetics <=

    Nuclear Repulsion Energy =            313.0160840773602331
    One-Electron Energy =               -1090.5619558724695253
    Two-Electron Energy =                 432.5104847453644652
    DFT Exchange-Correlation Energy =       0.0000000000000000
    Empirical Dispersion Energy =           0.0000000000000000
    PCM Polarization Energy =               0.0000000000000000
    EFP Energy =                            0.0000000000000000
    Total Energy =                       -345.0353870497448270
    Molecular point group: c1
  Basis Set: CC-PVTZ
  Basis Set:

  -Total Gradient:
     Atom            X                  Y                   Z
    ------   -----------------  -----------------  -----------------
       1        0.000015117233    -0.000041967780     0.000276547972
       2       -0.000017152698     0.000017901194    -0.000374104447
       3       -0.000113853239     0.000228283455    -0.000041981562
       4       -0.000008583423    -0.000009495656    -0.000018471362
       5       -0.000002351803     0.000000770080    -0.000000395765
       6        0.000103536768    -0.000192023283     0.000147944658
       7       -0.000001207637    -0.000002079174     0.000000091371
       8       -0.000001862377     0.000000782014    -0.000004297931
       9       -0.000001020273    -0.000001135132     0.000002277706
      10        0.000001436724    -0.000002820960    -0.000001432377
      11       -0.000000158108     0.000000247315     0.000002244419
      12       -0.000000663430    -0.000001066423    -0.000001251068
      13        0.000001401313     0.000001848657    -0.000000605084
      14        0.000027190873     0.000001328298     0.000024003674
      15       -0.000009193773    -0.000006566402     0.000005404329
      16        0.000001684318     0.000007495491    -0.000002740556
      17        0.000005679537    -0.000001501689    -0.000013233975

  **** Optimization is complete! (in 5 steps) ****
    Final optimized geometry and variables:
    Molecular point group: c1

    Geometry (in Angstrom), charge = 0, multiplicity = 1:

    O            0.752966452681     1.298877599957     0.125404707450
    C            0.576893127797     0.133589344631     0.015063063885
    C           -0.765500229466    -0.551548048645     0.016175496145
    O            1.562653379145    -0.739062797193    -0.114627658414
    C           -1.945337910076     0.409950906266     0.030668226966
    H           -0.799618368433    -1.207808064096    -0.846579121456
    H           -0.785182380707    -1.204430935176     0.883667235401
    C           -3.282720454660    -0.322228817697     0.043045316431
    H           -1.888390166411     1.058860449834    -0.835397248960
    H           -1.868840530883     1.056005843186     0.896405230722
    H           -3.395863462133    -0.953424929504    -0.832269337017
    H           -4.107545409803     0.380010927571     0.051936671245
    H           -3.378053715572    -0.954569447590     0.919681539170
    C            2.882155966124    -0.232712855775    -0.111099507678
    H            3.027833286680     0.457194002363    -0.928981642619
    H            3.529173807036    -1.087212793418    -0.225264223043
    H            3.093890222291     0.273650690761     0.818957396907

  Mulliken Charges: (a.u.)
   Center  Symbol    Alpha    Beta     Spin     Total
       1     O     4.19677  4.19677  0.00000 -0.39355
       2     C     2.80699  2.80699  0.00000  0.38602
       3     C     3.09538  3.09538  0.00000 -0.19076
       4     O     4.14683  4.14683  0.00000 -0.29365
       5     C     3.07869  3.07869  0.00000 -0.15738
       6     H     0.44024  0.44024  0.00000  0.11953
       7     H     0.44184  0.44184  0.00000  0.11632
       8     C     3.15132  3.15132  0.00000 -0.30263
       9     H     0.44799  0.44799  0.00000  0.10402
      10     H     0.44550  0.44550  0.00000  0.10901
      11     H     0.45591  0.45591  0.00000  0.08818
      12     H     0.44559  0.44559  0.00000  0.10883
      13     H     0.45572  0.45572  0.00000  0.08856
      14     C     3.03733  3.03733  0.00000 -0.07466
      15     H     0.45429  0.45429  0.00000  0.09143
      16     H     0.44527  0.44527  0.00000  0.10946
      17     H     0.45436  0.45436  0.00000  0.09128

   Total alpha = 28.00000, Total beta = 28.00000, Total charge =  0.00000

*** Psi4 exiting successfully. Buy a developer a beer!
