                              Psi4 1.0.54 Driver

  ==> Input File <==

--------------------------------------------------------------------------
set {
	reference rhf
	basis cc-pvtz
}

set_num_threads( 4 )
memory 2 gb

molecule MOL {
0 1

H	 2.416195	 -0.708742	 -0.355175
C	 1.692752	 0.085822	 -0.426789
O	 0.462329	 -0.453336	 -0.000137
H	 1.635404	 0.423039	 -1.454025
H	 2.000819	 0.905703	 0.209707
C	 -0.590565	 0.341382	 0.000062
O	 -1.693898	 -0.053880	 0.000252
H	 -0.340426	 1.403822	 0.000200

	symmetry c1
}
set optking {
	frozen_dihedral = ("
		2 3 6 7
	")
}

ee,wfn = optimize('scf', return_wfn=True)
oeprop( wfn, 'DIPOLE', 'QUADRUPOLE', 'MULLIKEN_CHARGES')
f=open( 'psi4out.xyz', 'w' )
f.write( "8  " )
f.write( str(ee) + "\n" )
f.write( MOL.save_string_xyz() )
f.close()
--------------------------------------------------------------------------

    Molecular point group: c1
  Charge       = 0
  Multiplicity = 1
  Basis Set: CC-PVTZ
  Basis Set:
  @DF-RHF Final Energy:  -227.86895444759696
    Total Energy =                       -227.8689544475971331
    Molecular point group: c1
  Basis Set: CC-PVTZ
  Basis Set:
  Basis Set: CC-PVTZ
  Basis Set:
  @DF-RHF Final Energy:  -227.86898325217305
    Total Energy =                       -227.8689832521731375
  Basis Set: CC-PVTZ
  Basis Set:
  Basis Set: CC-PVTZ
  Basis Set:
  @DF-RHF Final Energy:  -227.86908045091684
    Total Energy =                       -227.8690804509169539
  Basis Set: CC-PVTZ
  Basis Set:
  Basis Set: CC-PVTZ
  Basis Set:
  @DF-RHF Final Energy:  -227.86913297933268
    Total Energy =                       -227.8691329793326190
  Basis Set: CC-PVTZ
  Basis Set:
  Basis Set: CC-PVTZ
  Basis Set:
  @DF-RHF Final Energy:  -227.86915275683424
    Total Energy =                       -227.8691527568341826
  Basis Set: CC-PVTZ
  Basis Set:
  Charge       = 0
  Multiplicity = 1
  Basis Set: CC-PVTZ
  Basis Set:

    Orbital Energies (a.u.)
    -----------------------

    Doubly Occupied:

       1A    -20.608858     2A    -20.548256     3A    -11.374600
       4A    -11.302056     5A     -1.479599     6A     -1.386654
       7A     -0.993880     8A     -0.849442     9A     -0.740746
      10A     -0.688534    11A     -0.685228    12A     -0.609699
      13A     -0.573607    14A     -0.540111    15A     -0.467067
      16A     -0.457586

  @DF-RHF Final Energy:  -227.86915414659663

   => Energetics <=

    Nuclear Repulsion Energy =            121.5234711534349401
    One-Electron Energy =                -552.1734004799230888
    Two-Electron Energy =                 202.7807751798914353
    DFT Exchange-Correlation Energy =       0.0000000000000000
    Empirical Dispersion Energy =           0.0000000000000000
    PCM Polarization Energy =               0.0000000000000000
    EFP Energy =                            0.0000000000000000
    Total Energy =                       -227.8691541465967418
    Molecular point group: c1
  Basis Set: CC-PVTZ
  Basis Set:

  -Total Gradient:
     Atom            X                  Y                   Z
    ------   -----------------  -----------------  -----------------
       1       -0.000070423298     0.000008533146     0.000013995422
       2       -0.000578954036    -0.000140645705    -0.002525178421
       3        0.000978488198     0.000484292082     0.002178278442
       4        0.000028765739    -0.000002093132     0.000018196960
       5       -0.000019440925    -0.000048710730    -0.000006411872
       6       -0.000500262843    -0.000857010114     0.003486983922
       7        0.000128575319     0.000596804847    -0.003165378124
       8        0.000033251843    -0.000041170395    -0.000000486329

  **** Optimization is complete! (in 6 steps) ****
    Final optimized geometry and variables:
    Molecular point group: c1

    Geometry (in Angstrom), charge = 0, multiplicity = 1:

    H            2.450939627082    -0.654449841673    -0.141795900514
    C            1.701561603146     0.093208252100    -0.341584378907
    O            0.459679656425    -0.465921205768     0.016210194470
    H            1.714878547247     0.343282554422    -1.394205009577
    H            1.919218872477     0.978278233775     0.244415232944
    C           -0.562783665576     0.351682056509     0.192086478301
    O           -1.680522847319     0.002758589171     0.153672586859
    H           -0.268603474662     1.386383200048     0.375468547662

  Mulliken Charges: (a.u.)
   Center  Symbol    Alpha    Beta     Spin     Total
       1     H     0.44136  0.44136  0.00000  0.11729
       2     C     3.02952  3.02952  0.00000 -0.05903
       3     O     4.12308  4.12308  0.00000 -0.24617
       4     H     0.45577  0.45577  0.00000  0.08846
       5     H     0.46431  0.46431  0.00000  0.07138
       6     C     2.83564  2.83564  0.00000  0.32872
       7     O     4.17287  4.17287  0.00000 -0.34574
       8     H     0.47745  0.47745  0.00000  0.04509

   Total alpha = 16.00000, Total beta = 16.00000, Total charge = -0.00000

*** Psi4 exiting successfully. Buy a developer a beer!
