                              Psi4 1.0.54 Driver

  ==> Input File <==

--------------------------------------------------------------------------
set {
	reference rhf
	basis cc-pvtz
}

set_num_threads( 4 )
memory 2 gb

molecule MOL {
0 1

H	 -2.698799	 -0.000846	 0.036018
C	 -1.694291	 -0.000483	 0.434279
O	 -0.828718	 -0.000608	 -0.655022
H	 -1.576855	 0.881100	 1.056504
H	 -1.576401	 -0.881658	 1.057001
C	 0.213181	 0.943212	 -0.694120
C	 -0.298303	 2.377192	 -0.773838
C	 1.221093	 0.749929	 0.433268
H	 0.714888	 0.719428	 -1.627302
H	 -1.038776	 2.470205	 -1.558762
H	 0.522563	 3.048120	 -0.999187
H	 -0.742276	 2.706476	 0.158388
H	 1.534379	 -0.285530	 0.485423
H	 2.097165	 1.361785	 0.251876
H	 0.817398	 1.035928	 1.397518

	symmetry c1
}
set optking {
	frozen_dihedral = ("
		6 3 2 1
	")
}

ee,wfn = optimize('scf', return_wfn=True)
oeprop( wfn, 'DIPOLE', 'QUADRUPOLE', 'MULLIKEN_CHARGES')
f=open( 'psi4out.xyz', 'w' )
f.write( "15  " )
f.write( str(ee) + "\n" )
f.write( MOL.save_string_xyz() )
f.close()
--------------------------------------------------------------------------

    Molecular point group: c1
  Charge       = 0
  Multiplicity = 1
  Basis Set: CC-PVTZ
  Basis Set:
  @DF-RHF Final Energy:  -232.22349707815869
    Total Energy =                       -232.2234970781588004
    Molecular point group: c1
  Basis Set: CC-PVTZ
  Basis Set:
  Basis Set: CC-PVTZ
  Basis Set:
  @DF-RHF Final Energy:  -231.72467060009333
    Total Energy =                       -231.7246706000932477
  Basis Set: CC-PVTZ
  Basis Set:
  Basis Set: CC-PVTZ
  Basis Set:
  @DF-RHF Final Energy:  -231.89381388945898
    Total Energy =                       -231.8938138894589258
  Basis Set: CC-PVTZ
  Basis Set:
  Basis Set: CC-PVTZ
  Basis Set:
  @DF-RHF Final Energy:  -231.81134967015922
    Total Energy =                       -231.8113496701594158
  Basis Set: CC-PVTZ
  Basis Set:
  @DF-RHF Final Energy:  -231.89606978584874
    Total Energy =                       -231.8960697858488800
  @DF-RHF Final Energy:  -232.10945131211164
    Total Energy =                       -232.1094513121115028
  @DF-RHF Final Energy:  -232.21798732958970
    Total Energy =                       -232.2179873295897323
  @DF-RHF Final Energy:  -232.22371505302806
    Total Energy =                       -232.2237150530282861
  @DF-RHF Final Energy:  -232.22224073546391
    Total Energy =                       -232.2222407354639131
  @DF-RHF Final Energy:  -232.22045659984076
    Total Energy =                       -232.2204565998407020
  @DF-RHF Final Energy:  -232.22366834263815
    Total Energy =                       -232.2236683426381774
  @DF-RHF Final Energy:  -232.22373463494282
    Total Energy =                       -232.2237346349427867
  Basis Set: CC-PVTZ
  Basis Set:
  @DF-RHF Final Energy:  -232.22397363206736
    Total Energy =                       -232.2239736320672705
  Basis Set: CC-PVTZ
  Basis Set:
  Basis Set: CC-PVTZ
  Basis Set:
  @DF-RHF Final Energy:  -232.22400514724302
    Total Energy =                       -232.2240051472429627
  Basis Set: CC-PVTZ
  Basis Set:
  Basis Set: CC-PVTZ
  Basis Set:
  @DF-RHF Final Energy:  -232.22400730127666
    Total Energy =                       -232.2240073012764014
  Basis Set: CC-PVTZ
  Basis Set:
  Charge       = 0
  Multiplicity = 1
  Basis Set: CC-PVTZ
  Basis Set:

    Orbital Energies (a.u.)
    -----------------------

    Doubly Occupied:

       1A    -20.539484     2A    -11.273219     3A    -11.258898
       4A    -11.208806     5A    -11.208393     6A     -1.371192
       7A     -1.051043     8A     -0.940392     9A     -0.931724
      10A     -0.781829    11A     -0.676988    12A     -0.640673
      13A     -0.633701    14A     -0.570274    15A     -0.563898
      16A     -0.552150    17A     -0.538093    18A     -0.501087
      19A     -0.498636    20A     -0.443381    21A     -0.406230

  @DF-RHF Final Energy:  -232.22400884197444

   => Energetics <=

    Nuclear Repulsion Energy =            198.8829241005857114
    One-Electron Energy =                -709.0336826319696684
    Two-Electron Energy =                 277.9267496894096894
    DFT Exchange-Correlation Energy =       0.0000000000000000
    Empirical Dispersion Energy =           0.0000000000000000
    PCM Polarization Energy =               0.0000000000000000
    EFP Energy =                            0.0000000000000000
    Total Energy =                       -232.2240088419742960
    Molecular point group: c1
  Basis Set: CC-PVTZ
  Basis Set:

  -Total Gradient:
     Atom            X                  Y                   Z
    ------   -----------------  -----------------  -----------------
       1       -0.000030302682     0.000978276799    -0.000450447205
       2        0.000031675108    -0.001139071533     0.000160716258
       3        0.000182417921    -0.000178501632     0.001145147190
       4       -0.000013476005     0.000024777721     0.000001187883
       5        0.000018576321     0.000013523402    -0.000036941589
       6       -0.000209688652     0.000277441638    -0.000759140939
       7       -0.000033983617    -0.000015792602    -0.000050770423
       8       -0.000033878305     0.000001236889    -0.000058590338
       9       -0.000051494826     0.000004027674     0.000025971298
      10       -0.000000577659     0.000021454992     0.000056282532
      11        0.000025081933     0.000034314269    -0.000004199685
      12        0.000034165231    -0.000022059866    -0.000005309061
      13        0.000010618635    -0.000009956813    -0.000005646610
      14        0.000033208233     0.000030034020     0.000014668844
      15        0.000037658365    -0.000019704960    -0.000032928156

  **** Optimization is complete! (in 13 steps) ****
    Final optimized geometry and variables:
    Molecular point group: c1

    Geometry (in Angstrom), charge = 0, multiplicity = 1:

    H           -2.066685856678    -1.348736496561    -0.722340021848
    C           -1.485101116200    -0.933408658173     0.091466226899
    O           -0.130376506530    -1.016750132629    -0.232736014727
    H           -1.821232660919     0.083533945501     0.249930432428
    H           -1.691882277314    -1.500523577983     0.992514787639
    C            0.681310887941     0.124132653893    -0.106327077473
    C            0.304863041517     1.216424994231    -1.100993390598
    C            0.750882232903     0.632189424087     1.329046161741
    H            1.665303472166    -0.239081624651    -0.375286078926
    H            0.261692161353     0.809146144249    -2.103397125973
    H            1.048205829679     2.005444215305    -1.084810119842
    H           -0.654457577736     1.666644909050    -0.873849932107
    H            1.025174137547    -0.173734253129     1.998640337788
    H            1.497697051083     1.413487731104     1.412361797342
    H           -0.194630079287     1.045157009000     1.661485694611

  Mulliken Charges: (a.u.)
   Center  Symbol    Alpha    Beta     Spin     Total
       1     H     0.45056  0.45056  0.00000  0.09888
       2     C     3.03830  3.03830  0.00000 -0.07661
       3     O     4.18763  4.18763  0.00000 -0.37525
       4     H     0.46966  0.46966  0.00000  0.06068
       5     H     0.45669  0.45669  0.00000  0.08661
       6     C     2.93945  2.93945  0.00000  0.12110
       7     C     3.15479  3.15479  0.00000 -0.30958
       8     C     3.15495  3.15495  0.00000 -0.30990
       9     H     0.44605  0.44605  0.00000  0.10790
      10     H     0.44481  0.44481  0.00000  0.11038
      11     H     0.45085  0.45085  0.00000  0.09831
      12     H     0.45538  0.45538  0.00000  0.08925
      13     H     0.44500  0.44500  0.00000  0.11000
      14     H     0.45023  0.45023  0.00000  0.09954
      15     H     0.45565  0.45565  0.00000  0.08869

   Total alpha = 21.00000, Total beta = 21.00000, Total charge = -0.00000

*** Psi4 exiting successfully. Buy a developer a beer!
