  ==> Input File <==

--------------------------------------------------------------------------
set {
	reference rhf
	basis 6-31G*
}

set_num_threads( 4 )
memory 2 gb

molecule MOL {
0 1

H	 3.276176	 0.174363	 -0.109463
N	 2.434251	 -0.367735	 -0.081097
C	 1.267428	 0.496480	 0.024474
H	 2.501951	 -0.965776	 0.720575
C	 -0.016086	 -0.325158	 -0.029487
H	 1.288818	 1.183521	 -0.816092
H	 1.267576	 1.109062	 0.929528
C	 -1.282277	 0.529072	 0.046735
H	 -0.012495	 -0.908639	 -0.945788
H	 -0.015903	 -1.041248	 0.791956
C	 -1.853162	 0.620809	 1.461435
H	 -2.036884	 0.115029	 -0.618940
H	 -1.068399	 1.530809	 -0.320330
H	 -2.110322	 -0.362635	 1.844093
H	 -2.751031	 1.230566	 1.484884
H	 -1.134778	 1.063195	 2.145861

	symmetry c1
}
set optking {
	frozen_dihedral = ("
		12 8 5 9
	")
}

ee = optimize('scf')
oeprop('DIPOLE', 'QUADRUPOLE', 'MULLIKEN_CHARGES')
f=open( 'psi4out.xyz', 'w' )
f.write( "16  " )
f.write( str(ee) + "\n" )
f.write( MOL.save_string_xyz() )
f.close()
--------------------------------------------------------------------------

    Molecular point group: c1
  Charge       = 0
  Multiplicity = 1
  Basis Set: 6-31G*
  Basis Set:
  @DF-RHF Final Energy:  -212.31302858054983
    Total Energy =                       -212.3130285805498261
    Molecular point group: c1
  Basis Set: 6-31G*
  Basis Set:
  Basis Set: 6-31G*
  Basis Set:
  @DF-RHF Final Energy:  -212.31330279084187
    Total Energy =                       -212.3133027908417034
  Basis Set: 6-31G*
  Basis Set:
  Basis Set: 6-31G*
  Basis Set:
  @DF-RHF Final Energy:  -212.31337423487639
    Total Energy =                       -212.3133742348763349
  Basis Set: 6-31G*
  Basis Set:
  Charge       = 0
  Multiplicity = 1
  Basis Set: 6-31G*
  Basis Set:

    Orbital Energies (a.u.)
    -----------------------

    Doubly Occupied:

       1A    -15.532744     2A    -11.240392     3A    -11.215073
       4A    -11.209510     5A    -11.209260     6A     -1.176947
       7A     -1.057937     8A     -0.957104     9A     -0.850948
      10A     -0.788240    11A     -0.659402    12A     -0.635579
      13A     -0.610898    14A     -0.577795    15A     -0.561513
      16A     -0.527817    17A     -0.503492    18A     -0.468093
      19A     -0.462422    20A     -0.460422    21A     -0.380959

  @DF-RHF Final Energy:  -212.31337516912387

   => Energetics <=

    Nuclear Repulsion Energy =            187.7400782493859026
    One-Electron Energy =                -657.9338127210590983
    Two-Electron Energy =                 257.8803593025494365
    DFT Exchange-Correlation Energy =       0.0000000000000000
    Empirical Dispersion Energy =           0.0000000000000000
    PCM Polarization Energy =               0.0000000000000000
    EFP Energy =                            0.0000000000000000
    Total Energy =                       -212.3133751691237876
    Molecular point group: c1
  Basis Set: 6-31G*
  Basis Set:

  -Total Gradient:
     Atom            X                  Y                   Z
    ------   -----------------  -----------------  -----------------
       1        0.000044369709    -0.000016583750     0.000009564347
       2        0.000046968957    -0.000013695679     0.000015997259
       3       -0.000040272939     0.000019843123    -0.000072273145
       4        0.000015355412    -0.000010408259     0.000007560753
       5        0.001948234244     0.003352071881    -0.002243092358
       6       -0.000017885425     0.000016021389    -0.000001845170
       7       -0.000022566995    -0.000032900403    -0.000019187097
       8       -0.001569681419    -0.002802919084     0.003122331623
       9       -0.001380847304    -0.002260314014     0.001419333173
      10       -0.000011170965    -0.000010937524     0.000012586206
      11        0.000007519320    -0.000015459405     0.000020154562
      12        0.000966448669     0.001764679507    -0.002221715597
      13        0.000007276242     0.000005813637     0.000006405832
      14       -0.000003823819     0.000004738691    -0.000016830038
      15        0.000005484062     0.000013098520    -0.000017341746
      16        0.000004592253    -0.000013048630    -0.000021648604

  **** Optimization is complete! (in 4 steps) ****
    Final optimized geometry and variables:
    Molecular point group: c1

    Geometry (in Angstrom), charge = 0, multiplicity = 1:

    H            3.131832294943    -0.009917759373    -0.370649905325
    N            2.290193900627    -0.552873155208    -0.350742607595
    C            1.119467963950     0.309420135818    -0.289964162045
    H            2.340344613424    -1.136085582909     0.462976227028
    C           -0.160344373076    -0.516252090637    -0.367327508452
    H            1.159995372196     0.982806902573    -1.140591263899
    H            1.094566733847     0.937327533124     0.604270234088
    C           -1.442916562999     0.327394586654    -0.253266593862
    H           -0.154997732351    -1.088308164452    -1.289131791402
    H           -0.148487719386    -1.257753055576     0.431223715168
    C           -1.986388195715     0.435235609723     1.171363970314
    H           -2.207740196712    -0.078080659045    -0.909176819624
    H           -1.246760958491     1.328402669081    -0.633874237791
    H           -2.271425196554    -0.540435685101     1.554269176419
    H           -2.862049067152     1.075898038986     1.211201928683
    H           -1.244010398321     0.850164590175     1.847454520076

  Mulliken Charges: (a.u.)
   Center  Symbol    Alpha    Beta     Spin     Total
       1     H     0.33240  0.33240  0.00000  0.33520
       2     N     3.92198  3.92198  0.00000 -0.84395
       3     C     3.06196  3.06196  0.00000 -0.12391
       4     H     0.33513  0.33513  0.00000  0.32974
       5     C     3.15322  3.15322  0.00000 -0.30645
       6     H     0.42026  0.42026  0.00000  0.15948
       7     H     0.43431  0.43431  0.00000  0.13139
       8     C     3.15951  3.15951  0.00000 -0.31901
       9     H     0.41091  0.41091  0.00000  0.17817
      10     H     0.42676  0.42676  0.00000  0.14647
      11     C     3.23924  3.23924  0.00000 -0.47848
      12     H     0.41827  0.41827  0.00000  0.16345
      13     H     0.42272  0.42272  0.00000  0.15456
      14     H     0.42111  0.42111  0.00000  0.15778
      15     H     0.41966  0.41966  0.00000  0.16068
      16     H     0.42256  0.42256  0.00000  0.15488

   Total alpha = 21.00000, Total beta = 21.00000, Total charge = -0.00000
