  ==> Input File <==

--------------------------------------------------------------------------
set {
	reference rhf
	basis 6-31G*
}

set_num_threads( 4 )
memory 2 gb

molecule MOL {
0 1

H	 2.591676	 2.013956	 0.335017
O	 3.341076	 1.666752	 -0.126416
C	 3.569581	 0.339145	 0.272707
C	 2.539767	 -0.640285	 -0.279495
H	 4.553106	 0.084646	 -0.100901
H	 3.608576	 0.269204	 1.359154
C	 1.115811	 -0.397273	 0.226630
H	 2.556196	 -0.582511	 -1.364741
H	 2.852081	 -1.648031	 -0.010655
C	 0.829774	 1.082024	 0.499910
H	 0.956936	 -0.971412	 1.135195
H	 0.401864	 -0.769231	 -0.508399
C	 -0.609564	 1.391225	 0.927743
H	 1.517428	 1.444819	 1.261722
H	 1.050283	 1.649472	 -0.401800
C	 -1.013863	 0.820100	 2.289666
H	 -0.733448	 2.471853	 0.954427
H	 -1.297053	 1.027534	 0.165559
C	 -2.420168	 1.242959	 2.719706
H	 -0.296449	 1.144305	 3.042208
H	 -0.964594	 -0.265936	 2.269653
C	 -2.828698	 0.668990	 4.075924
H	 -2.473886	 2.328879	 2.756843
H	 -3.137253	 0.928392	 1.964245
H	 -2.148993	 0.992326	 4.859300
H	 -3.828581	 0.988090	 4.353491
H	 -2.820855	 -0.417323	 4.060826

	symmetry c1
}
set optking {
	frozen_dihedral = ("
		10 7 4 8
	")
}

ee = optimize('scf')
oeprop('DIPOLE', 'QUADRUPOLE', 'MULLIKEN_CHARGES')
f=open( 'psi4out.xyz', 'w' )
f.write( "27  " )
f.write( str(ee) + "\n" )
f.write( MOL.save_string_xyz() )
f.close()
--------------------------------------------------------------------------

    Molecular point group: c1
  Charge       = 0
  Multiplicity = 1
  Basis Set: 6-31G*
  Basis Set:
  @DF-RHF Final Energy:  -388.26005389681706
    Total Energy =                       -388.2600538968164301
    Molecular point group: c1
  Basis Set: 6-31G*
  Basis Set:
  Basis Set: 6-31G*
  Basis Set:
  @DF-RHF Final Energy:  -388.27195286672782
    Total Energy =                       -388.2719528667278155
  Basis Set: 6-31G*
  Basis Set:
  Basis Set: 6-31G*
  Basis Set:
  @DF-RHF Final Energy:  -388.27430752866195
    Total Energy =                       -388.2743075286617795
  Basis Set: 6-31G*
  Basis Set:
  Basis Set: 6-31G*
  Basis Set:
  @DF-RHF Final Energy:  -388.27460942547765
    Total Energy =                       -388.2746094254780473
  Basis Set: 6-31G*
  Basis Set:
  @DF-RHF Final Energy:  -388.27509396515399
    Total Energy =                       -388.2750939651534736
  Basis Set: 6-31G*
  Basis Set:
  @DF-RHF Final Energy:  -388.27511680401983
    Total Energy =                       -388.2751168040197172
  Basis Set: 6-31G*
  Basis Set:
  Basis Set: 6-31G*
  Basis Set:
  @DF-RHF Final Energy:  -388.27517370464557
    Total Energy =                       -388.2751737046459084
  Basis Set: 6-31G*
  Basis Set:
  Basis Set: 6-31G*
  Basis Set:
  @DF-RHF Final Energy:  -388.27519525857838
    Total Energy =                       -388.2751952585779236
  Basis Set: 6-31G*
  Basis Set:
  Charge       = 0
  Multiplicity = 1
  Basis Set: 6-31G*
  Basis Set:

    Orbital Energies (a.u.)
    -----------------------

    Doubly Occupied:

       1A    -20.549091     2A    -11.266809     3A    -11.223851
       4A    -11.220041     5A    -11.219218     6A    -11.217752
       7A    -11.216551     8A    -11.215190     9A    -11.210692
      10A     -1.356747    11A     -1.096821    12A     -1.060377
      13A     -1.013021    14A     -0.949392    15A     -0.892174
      16A     -0.827651    17A     -0.801413    18A     -0.776076
      19A     -0.694523    20A     -0.650199    21A     -0.632004
      22A     -0.622339    23A     -0.598546    24A     -0.582846
      25A     -0.569366    26A     -0.562977    27A     -0.550075
      28A     -0.527423    29A     -0.517575    30A     -0.499411
      31A     -0.480414    32A     -0.476598    33A     -0.468457
      34A     -0.464357    35A     -0.448384    36A     -0.438960
      37A     -0.422276

  @DF-RHF Final Energy:  -388.27519576930445

   => Energetics <=

    Nuclear Repulsion Energy =            466.0757234745157120
    One-Electron Energy =               -1450.0626421926760941
    Two-Electron Energy =                 595.7117229488565044
    DFT Exchange-Correlation Energy =       0.0000000000000000
    Empirical Dispersion Energy =           0.0000000000000000
    PCM Polarization Energy =               0.0000000000000000
    EFP Energy =                            0.0000000000000000
    Total Energy =                       -388.2751957693038776
    Molecular point group: c1
  Basis Set: 6-31G*
  Basis Set:

  -Total Gradient:
     Atom            X                  Y                   Z
    ------   -----------------  -----------------  -----------------
       1       -0.000015020869     0.000007155901     0.000039835093
       2        0.000032400670    -0.000004094795    -0.000117766932
       3       -0.000052530949     0.000018357400     0.000102293350
       4        0.002172725983     0.006773040631     0.001852929739
       5       -0.000011038263     0.000003545496    -0.000006471984
       6        0.000014473603    -0.000028091338     0.000013295055
       7       -0.002369993902    -0.000828166361    -0.005728478581
       8       -0.001204619353    -0.005573133209    -0.000092574582
       9       -0.000004087634     0.000000805424    -0.000004036737
      10        0.001379426161    -0.000372713055     0.003883189021
      11       -0.000010341193    -0.000019034634     0.000014563941
      12        0.000003457921     0.000010730119     0.000000986920
      13        0.000034147456     0.000025459162     0.000058282449
      14       -0.000029364782    -0.000006801062     0.000012951870
      15        0.000005442054     0.000019939762     0.000010732054
      16        0.000017500667    -0.000020141871    -0.000015949994
      17        0.000001218317     0.000024149725    -0.000007353409
      18        0.000034205710    -0.000016838603     0.000004154262
      19       -0.000000557517     0.000003025954    -0.000016968864
      20        0.000001453162    -0.000006700713    -0.000003151333
      21        0.000013233908    -0.000017417787    -0.000008252560
      22        0.000000382739     0.000007636754     0.000005354829
      23       -0.000005136758     0.000000228675    -0.000007341947
      24       -0.000006989561    -0.000004112642     0.000004971987
      25        0.000000213740    -0.000001819084     0.000002032584
      26       -0.000000492587     0.000001242132     0.000004800605
      27       -0.000000108724     0.000003748018    -0.000002026829

  **** Optimization is complete! (in 9 steps) ****
    Final optimized geometry and variables:
    Molecular point group: c1

    Geometry (in Angstrom), charge = 0, multiplicity = 1:

    H            2.541208290558     1.404271696739    -1.169079019498
    O            3.209449063663     0.833709393458    -1.516394985916
    C            3.115175700025    -0.435535455175    -0.922219726094
    C            1.955861485428    -1.284684712633    -1.436787940067
    H            4.044285840530    -0.934175019693    -1.166273495805
    H            3.074972758656    -0.352561438064     0.163008127324
    C            0.540691968403    -0.986996636996    -0.896642302217
    H            1.957665609444    -1.268186987293    -2.522987296486
    H            2.182405896140    -2.317663763228    -1.176558720090
    C            0.197127084762     0.484465743672    -0.634219241222
    H            0.414136595838    -1.533549525766     0.033908670370
    H           -0.186229136768    -1.403093601331    -1.589298997799
    C           -1.257071962234     0.722799598554    -0.207982769270
    H            0.852184702491     0.883570897811     0.138985972178
    H            0.381063257077     1.062442269958    -1.537539078748
    C           -1.637950983699     0.133086921696     1.152733948722
    H           -1.433605618695     1.796124851653    -0.182273109755
    H           -1.921964169808     0.325517037536    -0.972767975613
    C           -3.061246855167     0.497916899871     1.580279764720
    H           -0.936073503242     0.486571432336     1.907114525371
    H           -1.544294579680    -0.949584745826     1.131730451754
    C           -3.447281633912    -0.091438927507     2.936450701641
    H           -3.160289234042     1.580682299538     1.616237923976
    H           -3.763345021392     0.152808248308     0.824195437607
    H           -2.782868776877     0.260765692494     3.720536748065
    H           -4.459933435895     0.186076208800     3.212211032352
    H           -3.394185280908    -1.176430294697     2.922217616869

  Mulliken Charges: (a.u.)
   Center  Symbol    Alpha    Beta     Spin     Total
       1     H     0.27553  0.27553  0.00000  0.44895
       2     O     4.37528  4.37528  0.00000 -0.75057
       3     C     2.99795  2.99795  0.00000  0.00409
       4     C     3.16703  3.16703  0.00000 -0.33407
       5     H     0.41458  0.41458  0.00000  0.17084
       6     H     0.43115  0.43115  0.00000  0.13770
       7     C     3.15557  3.15557  0.00000 -0.31115
       8     H     0.41303  0.41303  0.00000  0.17394
       9     H     0.42260  0.42260  0.00000  0.15480
      10     C     3.16960  3.16960  0.00000 -0.33920
      11     H     0.42050  0.42050  0.00000  0.15901
      12     H     0.41879  0.41879  0.00000  0.16243
      13     C     3.15182  3.15182  0.00000 -0.30364
      14     H     0.42797  0.42797  0.00000  0.14406
      15     H     0.41785  0.41785  0.00000  0.16430
      16     C     3.15345  3.15345  0.00000 -0.30690
      17     H     0.42108  0.42108  0.00000  0.15784
      18     H     0.42180  0.42180  0.00000  0.15640
      19     C     3.15141  3.15141  0.00000 -0.30283
      20     H     0.42485  0.42485  0.00000  0.15030
      21     H     0.42109  0.42109  0.00000  0.15783
      22     C     3.23931  3.23931  0.00000 -0.47862
      23     H     0.42285  0.42285  0.00000  0.15429
      24     H     0.42255  0.42255  0.00000  0.15490
      25     H     0.42175  0.42175  0.00000  0.15650
      26     H     0.41886  0.41886  0.00000  0.16228
      27     H     0.42175  0.42175  0.00000  0.15650

   Total alpha = 37.00000, Total beta = 37.00000, Total charge =  0.00000
