  ==> Input File <==

--------------------------------------------------------------------------
set {
	reference rhf
	basis 6-31G*
}

set_num_threads( 4 )
memory 2 gb

molecule MOL {
0 1

O	 -2.789259	 0.442106	 0.672552
C	 -1.921153	 0.064240	 -0.045697
C	 -2.131689	 -0.577270	 -1.390497
O	 -0.632575	 0.154573	 0.251549
H	 -1.696518	 -1.570021	 -1.394852
H	 -3.188736	 -0.635789	 -1.602775
H	 -1.630702	 0.004059	 -2.155890
C	 0.160891	 -1.019931	 0.106212
C	 1.589627	 -0.672828	 0.480843
H	 0.089836	 -1.367806	 -0.916050
H	 -0.238459	 -1.792301	 0.749618
C	 2.246377	 0.346236	 -0.452210
H	 2.163194	 -1.597435	 0.473358
H	 1.604769	 -0.303424	 1.502885
C	 3.691736	 0.652107	 -0.061850
H	 2.219579	 -0.032311	 -1.472055
H	 1.666466	 1.263317	 -0.447249
H	 4.134505	 1.377213	 -0.737283
H	 4.305508	 -0.243868	 -0.089969
H	 3.748266	 1.059562	 0.943567

	symmetry c1
}
set optking {
	frozen_dihedral = ("
		1 2 4 8
	")
}

ee = optimize('scf')
oeprop('DIPOLE', 'QUADRUPOLE', 'MULLIKEN_CHARGES')
f=open( 'psi4out.xyz', 'w' )
f.write( "20  " )
f.write( str(ee) + "\n" )
f.write( MOL.save_string_xyz() )
f.close()
--------------------------------------------------------------------------

    Molecular point group: c1
  Charge       = 0
  Multiplicity = 1
  Basis Set: 6-31G*
  Basis Set:
  @DF-RHF Final Energy:  -383.92122444127989
    Total Energy =                       -383.9212244412798327
    Molecular point group: c1
  Basis Set: 6-31G*
  Basis Set:
  Basis Set: 6-31G*
  Basis Set:
  @DF-RHF Final Energy:  -383.92185578376359
    Total Energy =                       -383.9218557837637036
  Basis Set: 6-31G*
  Basis Set:
  Basis Set: 6-31G*
  Basis Set:
  @DF-RHF Final Energy:  -383.92596849044753
    Total Energy =                       -383.9259684904477581
  Basis Set: 6-31G*
  Basis Set:
  Basis Set: 6-31G*
  Basis Set:
  @DF-RHF Final Energy:  -383.92636193028295
    Total Energy =                       -383.9263619302827237
  Basis Set: 6-31G*
  Basis Set:
  @DF-RHF Final Energy:  -383.92720927983964
    Total Energy =                       -383.9272092798396443
  @DF-RHF Final Energy:  -383.92745302019677
    Total Energy =                       -383.9274530201969355
  @DF-RHF Final Energy:  -383.92748508801174
    Total Energy =                       -383.9274850880119629
  Basis Set: 6-31G*
  Basis Set:
  @DF-RHF Final Energy:  -383.92750463761223
    Total Energy =                       -383.9275046376121736
  Basis Set: 6-31G*
  Basis Set:
  Basis Set: 6-31G*
  Basis Set:
  @DF-RHF Final Energy:  -383.92750522037448
    Total Energy =                       -383.9275052203745418
  Basis Set: 6-31G*
  Basis Set:
  Basis Set: 6-31G*
  Basis Set:
  @DF-RHF Final Energy:  -383.92750952751851
    Total Energy =                       -383.9275095275181684
  Basis Set: 6-31G*
  Basis Set:
  Charge       = 0
  Multiplicity = 1
  Basis Set: 6-31G*
  Basis Set:

    Orbital Energies (a.u.)
    -----------------------

    Doubly Occupied:

       1A    -20.590898     2A    -20.548586     3A    -11.376676
       4A    -11.296878     5A    -11.240193     6A    -11.229629
       7A    -11.222308     8A    -11.214252     9A     -1.459462
      10A     -1.366897    11A     -1.086167    12A     -1.019475
      13A     -0.996603    14A     -0.886709    15A     -0.813882
      16A     -0.778953    17A     -0.695534    18A     -0.687144
      19A     -0.659277    20A     -0.632794    21A     -0.614661
      22A     -0.592101    23A     -0.581208    24A     -0.553722
      25A     -0.552346    26A     -0.536776    27A     -0.498145
      28A     -0.488856    29A     -0.478012    30A     -0.475575
      31A     -0.448679    32A     -0.434529

  @DF-RHF Final Energy:  -383.92750964441166

   => Energetics <=

    Nuclear Repulsion Energy =            384.4401390797111162
    One-Electron Energy =               -1284.6214440765359086
    Two-Electron Energy =                 516.2537953524132490
    DFT Exchange-Correlation Energy =       0.0000000000000000
    Empirical Dispersion Energy =           0.0000000000000000
    PCM Polarization Energy =               0.0000000000000000
    EFP Energy =                            0.0000000000000000
    Total Energy =                       -383.9275096444115434
    Molecular point group: c1
  Basis Set: 6-31G*
  Basis Set:

  -Total Gradient:
     Atom            X                  Y                   Z
    ------   -----------------  -----------------  -----------------
       1       -0.000084356567    -0.003286256722     0.001879763539
       2       -0.000153863142     0.004432940134    -0.001092767556
       3        0.000015469876     0.000014946978    -0.000009099808
       4        0.000687739513    -0.000609718089    -0.003854297530
       5       -0.000000366006    -0.000000198997     0.000007439687
       6       -0.000002816863     0.000001496001    -0.000005521258
       7       -0.000008336466    -0.000000114403    -0.000001192249
       8       -0.000447144293    -0.000555619825     0.003092749892
       9        0.000001354660    -0.000016538745    -0.000009850458
      10        0.000001243688    -0.000004822792    -0.000007137264
      11       -0.000000823429     0.000000699175    -0.000000471741
      12       -0.000003554826     0.000019198365     0.000013858037
      13       -0.000003340000    -0.000007369446     0.000002299463
      14       -0.000007972663     0.000000923031    -0.000010997233
      15        0.000006034051     0.000000862667    -0.000011873593
      16        0.000000859308     0.000002890956     0.000004469287
      17       -0.000002014896     0.000004249393     0.000000721135
      18        0.000006566523    -0.000003244555    -0.000001920822
      19       -0.000003793790    -0.000001180332     0.000006114452
      20       -0.000000884676     0.000006857206    -0.000002285986

  **** Optimization is complete! (in 11 steps) ****
    Final optimized geometry and variables:
    Molecular point group: c1

    Geometry (in Angstrom), charge = 0, multiplicity = 1:

    O           -2.700821939732     0.604621144401     0.754955345077
    C           -1.946599529456     0.131003974685    -0.022236791558
    C           -2.390414021461    -0.562135977731    -1.289110159977
    O           -0.621457388817     0.206360298903     0.181655105882
    H           -2.280895006908    -1.637366724194    -1.190978606483
    H           -3.431815146501    -0.336067419411    -1.463085873481
    H           -1.792069164897    -0.240501821839    -2.133401495660
    C            0.180154118263    -0.960243268232     0.087647555791
    C            1.584891871295    -0.605386247038     0.539503962871
    H            0.191092040917    -1.327089600499    -0.933855758687
    H           -0.237909015928    -1.732493388175     0.724951938198
    C            2.275389538207     0.426090554080    -0.354118003830
    H            2.167023393799    -1.524611114961     0.559490179007
    H            1.534824787358    -0.238432294721     1.560168518080
    C            3.691283626533     0.753411091838     0.118330022251
    H            2.313192117882     0.049301813412    -1.374661458825
    H            1.680317806435     1.332452727480    -0.378726135981
    H            4.160481499226     1.484688478225    -0.531971634974
    H            4.319678347730    -0.132919459478     0.127355026317
    H            3.682884152619     1.163148074915     1.124112672037

  Mulliken Charges: (a.u.)
   Center  Symbol    Alpha    Beta     Spin     Total
       1     O     4.25324  4.25324  0.00000 -0.50647
       2     C     2.62149  2.62149  0.00000  0.75703
       3     C     3.30198  3.30198  0.00000 -0.60395
       4     O     4.31072  4.31072  0.00000 -0.62143
       5     H     0.40309  0.40309  0.00000  0.19382
       6     H     0.39072  0.39072  0.00000  0.21855
       7     H     0.40207  0.40207  0.00000  0.19585
       8     C     3.00429  3.00429  0.00000 -0.00858
       9     C     3.16170  3.16170  0.00000 -0.32341
      10     H     0.42152  0.42152  0.00000  0.15696
      11     H     0.41451  0.41451  0.00000  0.17097
      12     C     3.15625  3.15625  0.00000 -0.31249
      13     H     0.41969  0.41969  0.00000  0.16062
      14     H     0.40826  0.40826  0.00000  0.18347
      15     C     3.24076  3.24076  0.00000 -0.48151
      16     H     0.42551  0.42551  0.00000  0.14898
      17     H     0.40619  0.40619  0.00000  0.18763
      18     H     0.41695  0.41695  0.00000  0.16609
      19     H     0.42250  0.42250  0.00000  0.15499
      20     H     0.41856  0.41856  0.00000  0.16287

   Total alpha = 32.00000, Total beta = 32.00000, Total charge =  0.00000
