  ==> Input File <==

--------------------------------------------------------------------------
set {
	reference rhf
	basis 6-31G*
}

set_num_threads( 4 )
memory 2 gb

molecule MOL {
0 1

H	 1.573379	 -1.219080	 -0.784133
O	 1.586534	 -0.678666	 -0.000226
C	 0.489431	 0.077273	 0.000046
C	 -0.764129	 -0.759190	 0.000191
O	 0.537743	 1.263962	 0.000257
C	 -2.038368	 0.075731	 -0.000248
H	 -0.717284	 -1.412404	 -0.866059
H	 -0.717458	 -1.411724	 0.866967
H	 -2.086483	 0.712501	 -0.875098
H	 -2.908485	 -0.571682	 -0.000042
H	 -2.086576	 0.713280	 0.874068

	symmetry c1
}
set optking {
	frozen_dihedral = ("
		1 2 3 5
	")
}

ee = optimize('scf')
oeprop('DIPOLE', 'QUADRUPOLE', 'MULLIKEN_CHARGES')
f=open( 'psi4out.xyz', 'w' )
f.write( "11  " )
f.write( str(ee) + "\n" )
f.write( MOL.save_string_xyz() )
f.close()
--------------------------------------------------------------------------

    Molecular point group: c1
  Charge       = 0
  Multiplicity = 1
  Basis Set: 6-31G*
  Basis Set:
  @DF-RHF Final Energy:  -266.82474056173453
    Total Energy =                       -266.8247405617345294
    Molecular point group: c1
  Basis Set: 6-31G*
  Basis Set:
  Basis Set: 6-31G*
  Basis Set:
  @DF-RHF Final Energy:  -266.82622138313081
    Total Energy =                       -266.8262213831309282
  Basis Set: 6-31G*
  Basis Set:
  Basis Set: 6-31G*
  Basis Set:
  @DF-RHF Final Energy:  -266.82609324674956
    Total Energy =                       -266.8260932467492808
  Basis Set: 6-31G*
  Basis Set:
  Basis Set: 6-31G*
  Basis Set:
  @DF-RHF Final Energy:  -266.82636563466076
    Total Energy =                       -266.8263656346611015
  Basis Set: 6-31G*
  Basis Set:
  Basis Set: 6-31G*
  Basis Set:
  @DF-RHF Final Energy:  -266.82637419731333
    Total Energy =                       -266.8263741973134415
  Basis Set: 6-31G*
  Basis Set:
  Charge       = 0
  Multiplicity = 1
  Basis Set: 6-31G*
  Basis Set:

    Orbital Energies (a.u.)
    -----------------------

    Doubly Occupied:

       1A    -20.599954     2A    -20.560202     3A    -11.382185
       4A    -11.250789     5A    -11.224183     6A     -1.462728
       7A     -1.370411     8A     -1.066359     9A     -0.908741
      10A     -0.815915    11A     -0.715646    12A     -0.670233
      13A     -0.658531    14A     -0.616151    15A     -0.574968
      16A     -0.531809    17A     -0.520955    18A     -0.505795
      19A     -0.487674    20A     -0.445485

  @DF-RHF Final Energy:  -266.82637516343965

   => Energetics <=

    Nuclear Repulsion Energy =            179.1379644338826438
    One-Electron Energy =                -719.1912532108198093
    Two-Electron Energy =                 273.2269136134977430
    DFT Exchange-Correlation Energy =       0.0000000000000000
    Empirical Dispersion Energy =           0.0000000000000000
    PCM Polarization Energy =               0.0000000000000000
    EFP Energy =                            0.0000000000000000
    Total Energy =                       -266.8263751634394225
    Molecular point group: c1
  Basis Set: 6-31G*
  Basis Set:

  -Total Gradient:
     Atom            X                  Y                   Z
    ------   -----------------  -----------------  -----------------
       1        0.002592033704     0.004078273521    -0.002637322006
       2       -0.003321376081    -0.005067845244     0.001175332610
       3        0.000770485343     0.000789546998     0.006254866127
       4        0.000035931420     0.000016275252     0.000079752355
       5       -0.000041793662     0.000176809627    -0.004810962591
       6       -0.000029275566    -0.000004259881    -0.000024835265
       7        0.000003411097     0.000011298384    -0.000027064685
       8       -0.000003590496     0.000002215577    -0.000026283391
       9        0.000005774069    -0.000005072139     0.000007617233
      10       -0.000014252938     0.000005989496     0.000006009042
      11        0.000002653103    -0.000003231593     0.000002890570

  **** Optimization is complete! (in 6 steps) ****
    Final optimized geometry and variables:
    Molecular point group: c1

    Geometry (in Angstrom), charge = 0, multiplicity = 1:

    H            1.689909285110    -1.190962703541    -0.796038276299
    O            1.635126871329    -0.653181378226    -0.016077508651
    C            0.496707098364     0.082974853108     0.007498876477
    C           -0.771915470449    -0.740137215766     0.012835509846
    O            0.535378238924     1.261043476828     0.042890873723
    C           -2.041109905705     0.102385275103     0.006156386439
    H           -0.745554872132    -1.407818064294    -0.846504933483
    H           -0.728987149621    -1.384733909443     0.886268413947
    H           -2.088147266873     0.729493026395    -0.875898846177
    H           -2.916435823454    -0.537869680732     0.018330168774
    H           -2.078270458928     0.750314451293     0.872874818594

  Mulliken Charges: (a.u.)
   Center  Symbol    Alpha    Beta     Spin     Total
       1     H     0.26841  0.26841  0.00000  0.46319
       2     O     4.36347  4.36347  0.00000 -0.72693
       3     C     2.62543  2.62543  0.00000  0.74913
       4     C     3.21491  3.21491  0.00000 -0.42982
       5     O     4.24739  4.24739  0.00000 -0.49478
       6     C     3.23861  3.23861  0.00000 -0.47721
       7     H     0.41291  0.41291  0.00000  0.17417
       8     H     0.39618  0.39618  0.00000  0.20765
       9     H     0.40981  0.40981  0.00000  0.18038
      10     H     0.41683  0.41683  0.00000  0.16634
      11     H     0.40606  0.40606  0.00000  0.18788

   Total alpha = 20.00000, Total beta = 20.00000, Total charge =  0.00000
