  ==> Input File <==

--------------------------------------------------------------------------
set {
	reference rhf
	basis cc-pvtz
}

set_num_threads( 4 )
memory 2 gb

molecule MOL {
0 1

H	 2.614283	 2.028610	 0.296620
O	 3.358864	 1.662087	 -0.142800
C	 3.565468	 0.338079	 0.273842
C	 2.533667	 -0.637565	 -0.272227
H	 4.548038	 0.064914	 -0.086598
H	 3.593945	 0.282242	 1.360360
C	 1.114816	 -0.402372	 0.240993
H	 2.544552	 -0.580764	 -1.356576
H	 2.850574	 -1.642962	 -0.005497
C	 0.113298	 -1.420414	 -0.302504
H	 0.796373	 0.598427	 -0.031033
H	 1.113377	 -0.446476	 1.328807
C	 -0.360668	 -2.464713	 0.709945
H	 -0.748610	 -0.893503	 -0.704631
H	 0.568946	 -1.938325	 -1.141921
C	 -1.211358	 -1.916400	 1.854244
H	 -0.938804	 -3.216139	 0.179242
H	 0.502643	 -2.983715	 1.120416
C	 -1.741747	 -3.007896	 2.780384
H	 -2.049763	 -1.359291	 1.441720
H	 -0.635242	 -1.208194	 2.442069
C	 -2.588411	 -2.463578	 3.926146
H	 -2.330767	 -3.714243	 2.201845
H	 -0.905699	 -3.570867	 3.186770
H	 -3.451142	 -1.922119	 3.552311
H	 -2.950604	 -3.263526	 4.561761
H	 -2.016046	 -1.782028	 4.546823

	symmetry c1
}
set optking {
	frozen_dihedral = ("
		14 10 7 4
	")
}

ee = optimize('scf')
oeprop('DIPOLE', 'QUADRUPOLE', 'MULLIKEN_CHARGES')
f=open( 'psi4out.xyz', 'w' )
f.write( "27  " )
f.write( str(ee) + "\n" )
f.write( MOL.save_string_xyz() )
f.close()
--------------------------------------------------------------------------

    Molecular point group: c1
  Charge       = 0
  Multiplicity = 1
  Basis Set: CC-PVTZ
  Basis Set:
  @DF-RHF Final Energy:  -388.42248087867665
    Total Energy =                       -388.4224808786761969
    Molecular point group: c1
  Basis Set: CC-PVTZ
  Basis Set:
  Basis Set: CC-PVTZ
  Basis Set:
  @DF-RHF Final Energy:  -388.42275258958927
    Total Energy =                       -388.4227525895893223
  Basis Set: CC-PVTZ
  Basis Set:
  Basis Set: CC-PVTZ
  Basis Set:
  @DF-RHF Final Energy:  -388.42298896601983
    Total Energy =                       -388.4229889660202844
  Basis Set: CC-PVTZ
  Basis Set:
  Basis Set: CC-PVTZ
  Basis Set:
  @DF-RHF Final Energy:  -388.42301253998789
    Total Energy =                       -388.4230125399872122
  Basis Set: CC-PVTZ
  Basis Set:
  Basis Set: CC-PVTZ
  Basis Set:
  @DF-RHF Final Energy:  -388.42302251088648
    Total Energy =                       -388.4230225108863124
  Basis Set: CC-PVTZ
  Basis Set:
  Basis Set: CC-PVTZ
  Basis Set:
  @DF-RHF Final Energy:  -388.42302361491136
    Total Energy =                       -388.4230236149116990
  Basis Set: CC-PVTZ
  Basis Set:
  Charge       = 0
  Multiplicity = 1
  Basis Set: CC-PVTZ
  Basis Set:

    Orbital Energies (a.u.)
    -----------------------

    Doubly Occupied:

       1A    -20.545264     2A    -11.264861     3A    -11.217013
       4A    -11.214528     5A    -11.214295     6A    -11.213832
       7A    -11.213771     8A    -11.212226     9A    -11.207744
      10A     -1.363174    11A     -1.095600    12A     -1.061943
      13A     -1.012002    14A     -0.949171    15A     -0.888532
      16A     -0.824362    17A     -0.802558    18A     -0.775948
      19A     -0.695869    20A     -0.656802    21A     -0.631842
      22A     -0.617209    23A     -0.601080    24A     -0.586755
      25A     -0.580493    26A     -0.551940    27A     -0.545685
      28A     -0.528645    29A     -0.505871    30A     -0.504203
      31A     -0.483026    32A     -0.475284    33A     -0.465398
      34A     -0.457695    35A     -0.452026    36A     -0.443123
      37A     -0.426477

  @DF-RHF Final Energy:  -388.42302366909928

   => Energetics <=

    Nuclear Repulsion Energy =            460.3035018154690761
    One-Electron Energy =               -1438.8805564489412063
    Two-Electron Energy =                 590.1540309643723958
    DFT Exchange-Correlation Energy =       0.0000000000000000
    Empirical Dispersion Energy =           0.0000000000000000
    PCM Polarization Energy =               0.0000000000000000
    EFP Energy =                            0.0000000000000000
    Total Energy =                       -388.4230236690997344
    Molecular point group: c1
  Basis Set: CC-PVTZ
  Basis Set:

  -Total Gradient:
     Atom            X                  Y                   Z
    ------   -----------------  -----------------  -----------------
       1        0.000007249236     0.000000665570     0.000000315601
       2       -0.000003446209     0.000004657176    -0.000006906109
       3       -0.000003360486    -0.000004690759     0.000016167246
       4       -0.000273632856     0.000874136017    -0.001075878042
       5       -0.000004084653    -0.000002187538     0.000000348490
       6        0.000002702875    -0.000001333664     0.000002064733
       7        0.000591412505    -0.001170070075     0.001078427018
       8        0.000002819378     0.000006909937    -0.000000399108
       9       -0.000001537915    -0.000002047008    -0.000004790439
      10       -0.001107772904     0.000202104509     0.001761495676
      11       -0.000000456718    -0.000006358817    -0.000000520395
      12        0.000011426023     0.000016764916    -0.000006254630
      13       -0.000031484424    -0.000000921978    -0.000020114954
      14        0.000802085236     0.000090206821    -0.001757883675
      15       -0.000011051163    -0.000007663048     0.000001854696
      16        0.000018731287     0.000007366473     0.000012885441
      17        0.000000954406    -0.000009781936    -0.000006766519
      18       -0.000008979873     0.000008582878     0.000005292387
      19        0.000011512176    -0.000000144535     0.000007512072
      20        0.000005500535    -0.000003877181    -0.000005472254
      21       -0.000001926410     0.000001713527     0.000005340181
      22       -0.000006625754    -0.000002206812    -0.000009318758
      23        0.000001645618    -0.000001600092     0.000003123284
      24        0.000001147337     0.000000549422     0.000002370504
      25       -0.000002714282     0.000004284530     0.000001724424
      26       -0.000002427692    -0.000000881362    -0.000003071166
      27        0.000002314735    -0.000004176975    -0.000001545703

  **** Optimization is complete! (in 7 steps) ****
    Final optimized geometry and variables:
    Molecular point group: c1

    Geometry (in Angstrom), charge = 0, multiplicity = 1:

    H            2.113702719549     3.092231014034    -0.618046020745
    O            2.843999137691     2.737967057018    -1.090125838729
    C            3.029436184206     1.387662573909    -0.756315252534
    C            1.958728983553     0.469945134496    -1.326348197169
    H            3.994435214924     1.113490436344    -1.160822986197
    H            3.087343084199     1.268297933630     0.323931363885
    C            0.557758594734     0.713912445180    -0.766435307609
    H            1.942090587415     0.584155202238    -2.405734778133
    H            2.255017021941    -0.556667568061    -1.122164706710
    C           -0.489687287261    -0.283462366546    -1.302855298033
    H            0.251666083857     1.724508412756    -1.015498477240
    H            0.595545762201     0.666729353803     0.317946359603
    C           -0.935314073485    -1.347188280154    -0.297214083329
    H           -1.359779924219     0.251741909917    -1.669390748412
    H           -0.075612007391    -0.784697943645    -2.171901125657
    C           -1.849180995439    -0.823773644785     0.808934281407
    H           -1.456756582144    -2.136793620822    -0.830875472291
    H           -0.057385680701    -1.812013259924     0.146449872250
    C           -2.262810864863    -1.900526910186     1.808536702135
    H           -2.740299738222    -0.394662105966     0.356493268261
    H           -1.362358220728    -0.013516183819     1.344403610045
    C           -3.192469131247    -1.380927161910     2.900113031375
    H           -2.750217106829    -2.714130360685     1.278294258082
    H           -1.373589769893    -2.325996869632     2.265829783095
    H           -4.107392177372    -0.979858786228     2.476770308610
    H           -3.466551500577    -2.169599070456     3.591396622038
    H           -2.720339323770    -0.589271481833     3.472562213616

  Mulliken Charges: (a.u.)
   Center  Symbol    Alpha    Beta     Spin     Total
       1     H     0.39239  0.39239  0.00000  0.21522
       2     O     4.20552  4.20552  0.00000 -0.41104
       3     C     2.98006  2.98006  0.00000  0.03988
       4     C     3.08574  3.08574  0.00000 -0.17148
       5     H     0.44883  0.44883  0.00000  0.10233
       6     H     0.46997  0.46997  0.00000  0.06006
       7     C     3.11324  3.11324  0.00000 -0.22647
       8     H     0.44968  0.44968  0.00000  0.10065
       9     H     0.45587  0.45587  0.00000  0.08825
      10     C     3.10997  3.10997  0.00000 -0.21994
      11     H     0.44942  0.44942  0.00000  0.10116
      12     H     0.45167  0.45167  0.00000  0.09666
      13     C     3.09628  3.09628  0.00000 -0.19256
      14     H     0.44504  0.44504  0.00000  0.10992
      15     H     0.44739  0.44739  0.00000  0.10523
      16     C     3.08763  3.08763  0.00000 -0.17527
      17     H     0.44750  0.44750  0.00000  0.10501
      18     H     0.45403  0.45403  0.00000  0.09195
      19     C     3.08439  3.08439  0.00000 -0.16877
      20     H     0.45417  0.45417  0.00000  0.09166
      21     H     0.45415  0.45415  0.00000  0.09171
      22     C     3.14981  3.14981  0.00000 -0.29961
      23     H     0.45386  0.45386  0.00000  0.09228
      24     H     0.45466  0.45466  0.00000  0.09068
      25     H     0.45500  0.45500  0.00000  0.09001
      26     H     0.44820  0.44820  0.00000  0.10360
      27     H     0.45555  0.45555  0.00000  0.08890

   Total alpha = 37.00000, Total beta = 37.00000, Total charge =  0.00000
