  ==> Input File <==

--------------------------------------------------------------------------
set {
	reference rhf
	basis cc-pvtz
}

set_num_threads( 4 )
memory 2 gb

molecule MOL {
0 1

H	 0.126529	 -2.507499	 0.442549
C	 -0.740999	 -1.853747	 0.549558
N	 -0.537714	 -0.645117	 0.000000
O	 -1.733540	 -2.214118	 1.098843
C	 -1.522613	 0.412524	 0.000000
H	 0.340502	 -0.481068	 -0.426391
H	 -2.150256	 0.356137	 -0.880771
H	 -1.005621	 1.357208	 0.000000
H	 -2.150256	 0.356137	 0.880771

	symmetry c1
}
set optking {
	frozen_dihedral = ("
		6 3 5 7
	")
}

ee = optimize('scf')
oeprop('DIPOLE', 'QUADRUPOLE', 'MULLIKEN_CHARGES')
f=open( 'psi4out.xyz', 'w' )
f.write( "9  " )
f.write( str(ee) + "\n" )
f.write( MOL.save_string_xyz() )
f.close()
--------------------------------------------------------------------------

    Molecular point group: c1
  Charge       = 0
  Multiplicity = 1
  Basis Set: CC-PVTZ
  Basis Set:
  @DF-RHF Final Energy:  -208.04336716460523
    Total Energy =                       -208.0433671646052005
    Molecular point group: c1
  Basis Set: CC-PVTZ
  Basis Set:
  Basis Set: CC-PVTZ
  Basis Set:
  @DF-RHF Final Energy:  -208.04359241114878
    Total Energy =                       -208.0435924111487225
  Basis Set: CC-PVTZ
  Basis Set:
  Basis Set: CC-PVTZ
  Basis Set:
  @DF-RHF Final Energy:  -208.04359477616330
    Total Energy =                       -208.0435947761632747
  Basis Set: CC-PVTZ
  Basis Set:
  Basis Set: CC-PVTZ
  Basis Set:
  @DF-RHF Final Energy:  -208.04364448572844
    Total Energy =                       -208.0436444857284641
  Basis Set: CC-PVTZ
  Basis Set:
  @DF-RHF Final Energy:  -208.04365922800537
    Total Energy =                       -208.0436592280054811
  @DF-RHF Final Energy:  -208.04366664459761
    Total Energy =                       -208.0436666445976925
  @DF-RHF Final Energy:  -208.04366796587414
    Total Energy =                       -208.0436679658740786
  Basis Set: CC-PVTZ
  Basis Set:
  @DF-RHF Final Energy:  -208.04366912407659
    Total Energy =                       -208.0436691240765867
  Basis Set: CC-PVTZ
  Basis Set:
  Basis Set: CC-PVTZ
  Basis Set:
  @DF-RHF Final Energy:  -208.04367197739930
    Total Energy =                       -208.0436719773993559
  Basis Set: CC-PVTZ
  Basis Set:
  Basis Set: CC-PVTZ
  Basis Set:
  @DF-RHF Final Energy:  -208.04367391072958
    Total Energy =                       -208.0436739107296944
  Basis Set: CC-PVTZ
  Basis Set:
  Charge       = 0
  Multiplicity = 1
  Basis Set: CC-PVTZ
  Basis Set:

    Orbital Energies (a.u.)
    -----------------------

    Doubly Occupied:

       1A    -20.516746     2A    -15.584617     3A    -11.336667
       4A    -11.259992     5A     -1.394074     6A     -1.239576
       7A     -0.969914     8A     -0.808721     9A     -0.748881
      10A     -0.646170    11A     -0.629825    12A     -0.596338
      13A     -0.557940    14A     -0.538912    15A     -0.428575
      16A     -0.396602

  @DF-RHF Final Energy:  -208.04367424774853

   => Energetics <=

    Nuclear Repulsion Energy =            122.8443654903575748
    One-Electron Energy =                -526.4689819318087984
    Two-Electron Energy =                 195.5809421937026400
    DFT Exchange-Correlation Energy =       0.0000000000000000
    Empirical Dispersion Energy =           0.0000000000000000
    PCM Polarization Energy =               0.0000000000000000
    EFP Energy =                            0.0000000000000000
    Total Energy =                       -208.0436742477485836
    Molecular point group: c1
  Basis Set: CC-PVTZ
  Basis Set:

  -Total Gradient:
     Atom            X                  Y                   Z
    ------   -----------------  -----------------  -----------------
       1       -0.000000786377    -0.000001110765    -0.000002852050
       2        0.000014754145     0.000017155735     0.000043953723
       3       -0.000012964337    -0.000008592313    -0.000055267278
       4        0.000000722682     0.000000134109     0.000001955076
       5       -0.000010535292    -0.000015085169     0.000034094334
       6       -0.000003955444    -0.000006720565    -0.000008362752
       7        0.000022516415     0.000022036236    -0.000021043541
       8       -0.000000320589     0.000001240309     0.000013863232
       9       -0.000009431204    -0.000009057582    -0.000006340741

  **** Optimization is complete! (in 11 steps) ****
    Final optimized geometry and variables:
    Molecular point group: c1

    Geometry (in Angstrom), charge = 0, multiplicity = 1:

    H            1.256359233997    -1.461159893640     0.045183328361
    C            0.395228935100    -0.796278012892     0.135398466233
    N            0.634385914815     0.429430405023    -0.358129520528
    O           -0.625917447315    -1.150131478710     0.633971664372
    C           -0.373645657164     1.465025477838    -0.396845991763
    H            1.496732826911     0.579643050439    -0.819856106459
    H           -1.035843892739     1.353988695193    -1.247583517142
    H            0.111254273295     2.429352897487    -0.453702430252
    H           -0.966106834035     1.422278486456     0.503356245926

  Mulliken Charges: (a.u.)
   Center  Symbol    Alpha    Beta     Spin     Total
       1     H     0.46385  0.46385  0.00000  0.07229
       2     C     2.88041  2.88041  0.00000  0.23919
       3     N     3.60632  3.60632  0.00000 -0.21264
       4     O     4.21407  4.21407  0.00000 -0.42814
       5     C     3.07750  3.07750  0.00000 -0.15500
       6     H     0.41035  0.41035  0.00000  0.17931
       7     H     0.45475  0.45475  0.00000  0.09051
       8     H     0.45397  0.45397  0.00000  0.09205
       9     H     0.43878  0.43878  0.00000  0.12244

   Total alpha = 16.00000, Total beta = 16.00000, Total charge = -0.00000
