  ==> Input File <==

--------------------------------------------------------------------------
set {
	reference rhf
	basis 6-31G*
}

set_num_threads( 4 )
memory 2 gb

molecule MOL {
0 1

H	 -2.550315	 0.777705	 0.916339
C	 -2.544604	 0.097459	 0.073380
C	 -1.289387	 -0.766934	 0.076988
H	 -2.602591	 0.694379	 -0.828621
H	 -3.431534	 -0.525001	 0.129719
C	 -0.000005	 0.033229	 -0.000001
H	 -1.299935	 -1.466147	 -0.756910
H	 -1.248127	 -1.383631	 0.972744
C	 1.290528	 -0.768786	 0.000276
O	 -0.000875	 1.224810	 -0.057606
C	 2.545731	 0.095645	 -0.000061
H	 1.275672	 -1.427874	 -0.865626
H	 1.275566	 -1.427086	 0.866768
H	 2.577157	 0.734767	 -0.874036
H	 3.433520	 -0.528139	 0.000137
H	 2.577172	 0.735117	 0.873581

	symmetry c1
}
set optking {
	frozen_dihedral = ("
		3 6 9 12
	")
}

ee = optimize('scf')
oeprop('DIPOLE', 'QUADRUPOLE', 'MULLIKEN_CHARGES')
f=open( 'psi4out.xyz', 'w' )
f.write( "16  " )
f.write( str(ee) + "\n" )
f.write( MOL.save_string_xyz() )
f.close()
--------------------------------------------------------------------------

    Molecular point group: c1
  Charge       = 0
  Multiplicity = 1
  Basis Set: 6-31G*
  Basis Set:
  @DF-RHF Final Energy:  -270.03337393535389
    Total Energy =                       -270.0333739353540068
    Molecular point group: c1
  Basis Set: 6-31G*
  Basis Set:
  Basis Set: 6-31G*
  Basis Set:
  @DF-RHF Final Energy:  -270.03338080937448
    Total Energy =                       -270.0333808093746484
  Basis Set: 6-31G*
  Basis Set:
  Basis Set: 6-31G*
  Basis Set:
  @DF-RHF Final Energy:  -270.03330665306760
    Total Energy =                       -270.0333066530677115
  Basis Set: 6-31G*
  Basis Set:
  Basis Set: 6-31G*
  Basis Set:
  @DF-RHF Final Energy:  -270.03338560941950
    Total Energy =                       -270.0333856094196676
  Basis Set: 6-31G*
  Basis Set:
  Charge       = 0
  Multiplicity = 1
  Basis Set: 6-31G*
  Basis Set:

    Orbital Energies (a.u.)
    -----------------------

    Doubly Occupied:

       1A    -20.551220     2A    -11.323988     3A    -11.234032
       4A    -11.234005     5A    -11.213576     6A    -11.213573
       7A     -1.396582     8A     -1.068150     9A     -1.036251
      10A     -0.915881    11A     -0.845545    12A     -0.724754
      13A     -0.667855    14A     -0.647793    15A     -0.616847
      16A     -0.607955    17A     -0.560174    18A     -0.525840
      19A     -0.523982    20A     -0.510170    21A     -0.504010
      22A     -0.492511    23A     -0.484598    24A     -0.399569

  @DF-RHF Final Energy:  -270.03338607176556

   => Energetics <=

    Nuclear Repulsion Energy =            239.9727278540749467
    One-Electron Energy =                -841.4145067281033334
    Two-Electron Energy =                 331.4083928022627106
    DFT Exchange-Correlation Energy =       0.0000000000000000
    Empirical Dispersion Energy =           0.0000000000000000
    PCM Polarization Energy =               0.0000000000000000
    EFP Energy =                            0.0000000000000000
    Total Energy =                       -270.0333860717656762
    Molecular point group: c1
  Basis Set: 6-31G*
  Basis Set:

  -Total Gradient:
     Atom            X                  Y                   Z
    ------   -----------------  -----------------  -----------------
       1       -0.000001440519     0.000000790620     0.000004738450
       2       -0.000000166935     0.000001574535    -0.000022964907
       3        0.000008552827     0.000007412049     0.000137816588
       4        0.000002668812    -0.000001617042     0.000006928440
       5        0.000000524985    -0.000001165919     0.000005150865
       6       -0.000010916043     0.000009994379    -0.000186242507
       7        0.000006932525    -0.000003028018    -0.000022111226
       8       -0.000009397262    -0.000002662087    -0.000021444447
       9       -0.000046980719    -0.000085788633     0.000165510072
      10        0.000006471516     0.000001205749     0.000021845532
      11        0.000010304789     0.000015352997    -0.000027673578
      12        0.000022558378     0.000054426538    -0.000054098021
      13        0.000012744207     0.000009722814    -0.000023132852
      14       -0.000003476647    -0.000002243128     0.000004610230
      15       -0.000000719311    -0.000003861984     0.000005483322
      16        0.000002339397    -0.000000112870     0.000005584037

  **** Optimization is complete! (in 5 steps) ****
    Final optimized geometry and variables:
    Molecular point group: c1

    Geometry (in Angstrom), charge = 0, multiplicity = 1:

    H           -2.561667157203     0.791168771295     0.864030894809
    C           -2.545700299134     0.095654282700     0.034008125251
    C           -1.289552172420    -0.766818555174     0.068228260401
    H           -2.593994950186     0.675757800136    -0.879594192484
    H           -3.432559538493    -0.526838050874     0.091228997114
    C           -0.000051932835     0.033610168893    -0.003576045728
    H           -1.289262046555    -1.482312673193    -0.751713777543
    H           -1.258651590241    -1.365612758841     0.976595845901
    C            1.289691058309    -0.769348764700    -0.028255477754
    O           -0.000149161259     1.226085396003    -0.038593367231
    C            2.545733657076     0.094067840899    -0.029736120297
    H            1.263632621244    -1.410563771299    -0.907511684434
    H            1.285232480943    -1.444721047882     0.824794674732
    H            2.565664730782     0.748610386384    -0.892276354407
    H            3.432821507368    -0.530319275778    -0.052335564822
    H            2.589718717348     0.717667398228     0.855050163330

  Mulliken Charges: (a.u.)
   Center  Symbol    Alpha    Beta     Spin     Total
       1     H     0.41003  0.41003  0.00000  0.17994
       2     C     3.23480  3.23480  0.00000 -0.46960
       3     C     3.20529  3.20529  0.00000 -0.41057
       4     H     0.41124  0.41124  0.00000  0.17753
       5     H     0.42010  0.42010  0.00000  0.15979
       6     C     2.73581  2.73581  0.00000  0.52839
       7     H     0.40977  0.40977  0.00000  0.18045
       8     H     0.40884  0.40884  0.00000  0.18232
       9     C     3.20528  3.20528  0.00000 -0.41055
      10     O     4.26405  4.26405  0.00000 -0.52811
      11     C     3.23481  3.23481  0.00000 -0.46963
      12     H     0.40876  0.40876  0.00000  0.18248
      13     H     0.40985  0.40985  0.00000  0.18031
      14     H     0.40986  0.40986  0.00000  0.18029
      15     H     0.42010  0.42010  0.00000  0.15979
      16     H     0.41141  0.41141  0.00000  0.17718

   Total alpha = 24.00000, Total beta = 24.00000, Total charge =  0.00000
