  ==> Input File <==

--------------------------------------------------------------------------
set {
	reference rhf
	basis 6-31G*
}

set_num_threads( 4 )
memory 2 gb

molecule MOL {
0 1

O	 -2.821601	 1.309235	 -0.001213
C	 -2.668563	 0.129746	 -0.000350
C	 -3.801572	 -0.864014	 -0.000442
O	 -1.481751	 -0.454642	 0.000584
H	 -4.417280	 -0.689587	 -0.874708
H	 -3.443784	 -1.883046	 -0.000565
H	 -4.417179	 -0.689832	 0.873954
C	 -0.334255	 0.388708	 0.000906
C	 0.891947	 -0.504646	 0.000751
H	 -0.365390	 1.025305	 -0.873475
H	 -0.365484	 1.024911	 0.875569
C	 2.191998	 0.301789	 0.000897
H	 0.855148	 -1.151283	 -0.871571
H	 0.855132	 -1.151660	 0.872805
C	 3.441114	 -0.581407	 0.000108
H	 2.215074	 0.954890	 -0.869742
H	 2.215465	 0.953923	 0.872248
C	 3.116658	 -2.071113	 -0.101728
H	 4.012020	 -0.397006	 0.907378
H	 4.083798	 -0.293939	 -0.828981
H	 2.502184	 -2.396675	 0.732805
H	 4.021441	 -2.670780	 -0.099738
H	 2.574819	 -2.292889	 -1.016734

	symmetry c1
}
set optking {
	frozen_dihedral = ("
		19 15 12 16
	")
}

ee = optimize('scf')
oeprop('DIPOLE', 'QUADRUPOLE', 'MULLIKEN_CHARGES')
f=open( 'psi4out.xyz', 'w' )
f.write( "23  " )
f.write( str(ee) + "\n" )
f.write( MOL.save_string_xyz() )
f.close()
--------------------------------------------------------------------------

    Molecular point group: c1
  Charge       = 0
  Multiplicity = 1
  Basis Set: 6-31G*
  Basis Set:
  @DF-RHF Final Energy:  -422.96525147280767
    Total Energy =                       -422.9652514728081769
    Molecular point group: c1
  Basis Set: 6-31G*
  Basis Set:
  Basis Set: 6-31G*
  Basis Set:
  @DF-RHF Final Energy:  -422.96532631829996
    Total Energy =                       -422.9653263182999581
  Basis Set: 6-31G*
  Basis Set:
  Basis Set: 6-31G*
  Basis Set:
  @DF-RHF Final Energy:  -422.96915507546845
    Total Energy =                       -422.9691550754669152
  Basis Set: 6-31G*
  Basis Set:
  Basis Set: 6-31G*
  Basis Set:
  @DF-RHF Final Energy:  -422.96976068226434
    Total Energy =                       -422.9697606822643365
  Basis Set: 6-31G*
  Basis Set:
  @DF-RHF Final Energy:  -422.96983547593663
    Total Energy =                       -422.9698354759356107
  Basis Set: 6-31G*
  Basis Set:
  @DF-RHF Final Energy:  -422.96985237275311
    Total Energy =                       -422.9698523727536212
  Basis Set: 6-31G*
  Basis Set:
  Basis Set: 6-31G*
  Basis Set:
  @DF-RHF Final Energy:  -422.96984116369151
    Total Energy =                       -422.9698411636913988
  Basis Set: 6-31G*
  Basis Set:
  Basis Set: 6-31G*
  Basis Set:
  @DF-RHF Final Energy:  -422.96985306186718
    Total Energy =                       -422.9698530618669565
  Basis Set: 6-31G*
  Basis Set:
  Charge       = 0
  Multiplicity = 1
  Basis Set: 6-31G*
  Basis Set:

    Orbital Energies (a.u.)
    -----------------------

    Doubly Occupied:

       1A    -20.602892     2A    -20.540451     3A    -11.374013
       4A    -11.281280     5A    -11.232334     6A    -11.224579
       7A    -11.223737     8A    -11.222201     9A    -11.213141
      10A     -1.467865    11A     -1.360653    12A     -1.091166
      13A     -1.039212    14A     -1.001601    15A     -0.931164
      16A     -0.858977    17A     -0.789009    18A     -0.768368
      19A     -0.691939    20A     -0.684350    21A     -0.669828
      22A     -0.642601    23A     -0.605788    24A     -0.603719
      25A     -0.573925    26A     -0.565630    27A     -0.550742
      28A     -0.537013    29A     -0.529753    30A     -0.505548
      31A     -0.500967    32A     -0.473078    33A     -0.467186
      34A     -0.454154    35A     -0.451046    36A     -0.435367

  @DF-RHF Final Energy:  -422.96985303613258

   => Energetics <=

    Nuclear Repulsion Energy =            454.8077977152790936
    One-Electron Energy =               -1477.2247488341033659
    Two-Electron Energy =                 599.4470980826923778
    DFT Exchange-Correlation Energy =       0.0000000000000000
    Empirical Dispersion Energy =           0.0000000000000000
    PCM Polarization Energy =               0.0000000000000000
    EFP Energy =                            0.0000000000000000
    Total Energy =                       -422.9698530361318944
    Molecular point group: c1
  Basis Set: 6-31G*
  Basis Set:

  -Total Gradient:
     Atom            X                  Y                   Z
    ------   -----------------  -----------------  -----------------
       1        0.000000564856    -0.000001473634     0.000016558009
       2        0.000000205693     0.000004228804    -0.000052302597
       3        0.000001216509    -0.000000462332     0.000023776547
       4        0.000010926898    -0.000005354743    -0.000001810978
       5        0.000004523796     0.000001463239    -0.000001751857
       6       -0.000000206569    -0.000000473094     0.000000322749
       7       -0.000003564458    -0.000001051285    -0.000001720836
       8       -0.000003384895     0.000011698474     0.000031531062
       9       -0.000004243555     0.000001655299     0.000003615771
      10       -0.000005522347     0.000001961050    -0.000006540358
      11        0.000006321743    -0.000002159403    -0.000005941515
      12       -0.001008234573    -0.001680855780    -0.001828793998
      13        0.000015819992    -0.000019584521    -0.000007293577
      14       -0.000010180388     0.000015469177    -0.000000144900
      15       -0.001160400344    -0.001788237358     0.001613233293
      16        0.001016235900     0.001697004362     0.001288586456
      17        0.000000375583    -0.000000297126     0.000000316859
      18        0.000003061200    -0.000000667321     0.000012445334
      19        0.001133327964     0.001765977031    -0.001078573343
      20        0.000004896311    -0.000003564329     0.000005183903
      21        0.000013647041    -0.000005184722    -0.000000287427
      22        0.000000884050     0.000003834691    -0.000005548995
      23       -0.000016270407     0.000006073516    -0.000004859605

  **** Optimization is complete! (in 9 steps) ****
    Final optimized geometry and variables:
    Molecular point group: c1

    Geometry (in Angstrom), charge = 0, multiplicity = 1:

    O           -2.634384435296     1.624005946062    -0.018202430126
    C           -2.515040326619     0.440917169697     0.008560972015
    C           -3.676080926268    -0.519729225851     0.029939568212
    O           -1.345525670557    -0.177108653167     0.023338953081
    H           -4.287103977190    -0.346620933894    -0.847861390971
    H           -3.347665790830    -1.548376046319     0.051849055582
    H           -4.285887614579    -0.309128992294     0.900382426175
    C           -0.174172495390     0.632760206181     0.005961227888
    C            1.025342614187    -0.296670105160     0.025596443286
    H           -0.187183258788     1.250777690968    -0.882133590244
    H           -0.187329774117     1.288546401665     0.866500054322
    C            2.336389304369     0.495260279572     0.009632394185
    H            0.962259702846    -0.959596764332    -0.830777997047
    H            0.965013898644    -0.919418304154     0.912495171585
    C            3.654062451696    -0.328744171794     0.037130287628
    H            2.344489897202     1.148047609588    -0.859377024882
    H            2.334309117869     1.166879524486     0.864631923322
    C            3.533578315968    -1.846842001966    -0.116009393603
    H            4.187755854128    -0.110385312643     0.957175934653
    H            4.301011796771     0.035789265049    -0.755529496208
    H            2.950066904320    -2.294416961667     0.681355246541
    H            4.520489758669    -2.298279952256    -0.090054229356
    H            3.074723901399    -2.123140299361    -1.059838817085

  Mulliken Charges: (a.u.)
   Center  Symbol    Alpha    Beta     Spin     Total
       1     O     4.28395  4.28395  0.00000 -0.56790
       2     C     2.61536  2.61536  0.00000  0.76927
       3     C     3.28774  3.28774  0.00000 -0.57547
       4     O     4.31300  4.31300  0.00000 -0.62599
       5     H     0.39752  0.39752  0.00000  0.20497
       6     H     0.39988  0.39988  0.00000  0.20023
       7     H     0.39752  0.39752  0.00000  0.20497
       8     C     2.99510  2.99510  0.00000  0.00981
       9     C     3.16675  3.16675  0.00000 -0.33350
      10     H     0.41071  0.41071  0.00000  0.17858
      11     H     0.41077  0.41077  0.00000  0.17845
      12     C     3.16613  3.16613  0.00000 -0.33225
      13     H     0.41265  0.41265  0.00000  0.17470
      14     H     0.41339  0.41339  0.00000  0.17322
      15     C     3.15501  3.15501  0.00000 -0.31002
      16     H     0.41841  0.41841  0.00000  0.16318
      17     H     0.41853  0.41853  0.00000  0.16294
      18     C     3.24300  3.24300  0.00000 -0.48600
      19     H     0.41866  0.41866  0.00000  0.16267
      20     H     0.41869  0.41869  0.00000  0.16263
      21     H     0.41952  0.41952  0.00000  0.16095
      22     H     0.41758  0.41758  0.00000  0.16484
      23     H     0.42013  0.42013  0.00000  0.15974

   Total alpha = 36.00000, Total beta = 36.00000, Total charge = -0.00000
