                              Psi4 1.0.54 Driver

  ==> Input File <==

--------------------------------------------------------------------------
set {
	reference rhf
	basis cc-pvtz
}

set_num_threads( 4 )
memory 2 gb

molecule MOL {
0 1

O	 1.847685	 1.294399	 -0.000190
C	 1.704209	 0.119472	 -0.000093
C	 0.380337	 -0.600947	 -0.000234
O	 2.715427	 -0.733672	 0.000025
C	 -0.824290	 0.329213	 -0.000115
H	 0.371455	 -1.255476	 -0.865660
H	 0.371410	 -1.255787	 0.864952
C	 -2.146151	 -0.432825	 -0.000068
H	 -0.773936	 0.979158	 -0.866319
H	 -0.773838	 0.979034	 0.866186
C	 -3.366283	 0.483552	 0.000557
H	 -2.189286	 -1.084450	 -0.869996
H	 -2.188867	 -1.085083	 0.869399
C	 -3.242470	 1.646599	 -0.977913
H	 -3.522321	 0.871015	 1.003394
H	 -4.251119	 -0.098499	 -0.241192
H	 -2.385213	 2.268129	 -0.741177
H	 -4.124065	 2.276567	 -0.952128
H	 -3.120170	 1.290960	 -1.995655
C	 4.020999	 -0.192556	 0.000019
H	 4.182809	 0.412891	 -0.879449
H	 4.692590	 -1.035653	 0.000152
H	 4.182726	 0.413087	 0.879368

	symmetry c1
}
set optking {
	frozen_dihedral = ("
		15 11 8 12
	")
}

ee,wfn = optimize('scf', return_wfn=True)
oeprop( wfn, 'DIPOLE', 'QUADRUPOLE', 'MULLIKEN_CHARGES')
f=open( 'psi4out.xyz', 'w' )
f.write( "23  " )
f.write( str(ee) + "\n" )
f.write( MOL.save_string_xyz() )
f.close()
--------------------------------------------------------------------------

    Molecular point group: c1
  Charge       = 0
  Multiplicity = 1
  Basis Set: CC-PVTZ
  Basis Set:
  @DF-RHF Final Energy:  -423.12623350139739
    Total Energy =                       -423.1262335013977918
    Molecular point group: c1
  Basis Set: CC-PVTZ
  Basis Set:
  Basis Set: CC-PVTZ
  Basis Set:
  @DF-RHF Final Energy:  -423.12474137564755
    Total Energy =                       -423.1247413756473179
  Basis Set: CC-PVTZ
  Basis Set:
  Basis Set: CC-PVTZ
  Basis Set:
  @DF-RHF Final Energy:  -423.12797641877989
    Total Energy =                       -423.1279764187800083
  Basis Set: CC-PVTZ
  Basis Set:
  Basis Set: CC-PVTZ
  Basis Set:
  @DF-RHF Final Energy:  -423.12816950939811
    Total Energy =                       -423.1281695093982762
  Basis Set: CC-PVTZ
  Basis Set:
  Basis Set: CC-PVTZ
  Basis Set:
  @DF-RHF Final Energy:  -423.12809581103841
    Total Energy =                       -423.1280958110386337
  Basis Set: CC-PVTZ
  Basis Set:
  Basis Set: CC-PVTZ
  Basis Set:
  @DF-RHF Final Energy:  -423.12813778037844
    Total Energy =                       -423.1281377803783244
  Basis Set: CC-PVTZ
  Basis Set:
  Basis Set: CC-PVTZ
  Basis Set:
  @DF-RHF Final Energy:  -423.12818893848919
    Total Energy =                       -423.1281889384890746
  Basis Set: CC-PVTZ
  Basis Set:
  Charge       = 0
  Multiplicity = 1
  Basis Set: CC-PVTZ
  Basis Set:

    Orbital Energies (a.u.)
    -----------------------

    Doubly Occupied:

       1A    -20.596274     2A    -20.534101     3A    -11.364508
       4A    -11.278456     5A    -11.233695     6A    -11.216830
       7A    -11.215980     8A    -11.214824     9A    -11.205946
      10A     -1.472166    11A     -1.365731    12A     -1.093964
      13A     -1.042716    14A     -0.986019    15A     -0.932062
      16A     -0.858807    17A     -0.781986    18A     -0.768244
      19A     -0.698925    20A     -0.686509    21A     -0.676102
      22A     -0.645788    23A     -0.612529    24A     -0.598960
      25A     -0.591472    26A     -0.560591    27A     -0.536544
      28A     -0.526521    29A     -0.521123    30A     -0.517377
      31A     -0.492123    32A     -0.464395    33A     -0.463517
      34A     -0.460829    35A     -0.457034    36A     -0.438383

  @DF-RHF Final Energy:  -423.12818924850359

   => Energetics <=

    Nuclear Repulsion Energy =            458.3475517005418283
    One-Electron Energy =               -1484.7294184222607782
    Two-Electron Energy =                 603.2536774732150207
    DFT Exchange-Correlation Energy =       0.0000000000000000
    Empirical Dispersion Energy =           0.0000000000000000
    PCM Polarization Energy =               0.0000000000000000
    EFP Energy =                            0.0000000000000000
    Total Energy =                       -423.1281892485039862
    Molecular point group: c1
  Basis Set: CC-PVTZ
  Basis Set:

  -Total Gradient:
     Atom            X                  Y                   Z
    ------   -----------------  -----------------  -----------------
       1        0.000015944716    -0.000023389922     0.000003188768
       2       -0.000023168815     0.000022969770     0.000001588085
       3       -0.000000530355    -0.000000940600    -0.000019511885
       4        0.000005810006     0.000010404326    -0.000002810793
       5       -0.000004966887    -0.000003127938     0.000015169597
       6       -0.000001419339    -0.000003275175     0.000005900929
       7       -0.000002550682     0.000001126260     0.000007201585
       8        0.001668236166     0.002912435609    -0.002010003389
       9       -0.000001899703     0.000002268007    -0.000005122071
      10        0.000001998853     0.000001699336    -0.000002390200
      11        0.002170242040     0.003259116645    -0.000141726675
      12       -0.001756451586    -0.002966596431     0.001706781349
      13        0.000001898184     0.000000459820     0.000002316692
      14       -0.000002799546     0.000000736828    -0.000002644346
      15       -0.002078540379    -0.003208651802     0.000440965505
      16       -0.000004963083     0.000000300370    -0.000002541105
      17        0.000001144389     0.000001092001     0.000003818242
      18       -0.000001601139    -0.000000897045    -0.000000748284
      19        0.000003943478    -0.000000839393    -0.000000000746
      20        0.000003547053    -0.000008663464    -0.000000292003
      21       -0.000001574789     0.000001189857    -0.000001515820
      22        0.000009925492     0.000001747420     0.000000587167
      23       -0.000002224060     0.000000835524     0.000001789398

  **** Optimization is complete! (in 8 steps) ****
    Final optimized geometry and variables:
    Molecular point group: c1

    Geometry (in Angstrom), charge = 0, multiplicity = 1:

    O            1.710319654326     1.068456548330     0.238276082598
    C            1.566378577335    -0.101503258576     0.130335788753
    C            0.243164129735    -0.814357883093     0.018256549104
    O            2.576686093336    -0.954977982501     0.093402714758
    C           -0.959999571253     0.117033288863     0.060803205345
    H            0.264113087153    -1.385994186845    -0.903963531360
    H            0.203977631503    -1.546237608595     0.818227207063
    C           -2.275044375224    -0.645521562629    -0.070220503804
    H           -0.864257764494     0.849907873965    -0.729558631457
    H           -0.948143822576     0.673519248069     0.991921720350
    C           -3.542636123258     0.199341934477     0.094213396991
    H           -2.313918794705    -1.171248420691    -1.021665797460
    H           -2.301096520272    -1.428564264353     0.684137097559
    C           -3.598521312303     1.472592199095    -0.743876880602
    H           -3.683603500061     0.434147360697     1.145564296889
    H           -4.390519123886    -0.426272435929    -0.170059911860
    H           -2.845630137562     2.190483634537    -0.443128904269
    H           -4.565495470207     1.951768905675    -0.643476107837
    H           -3.446951712917     1.254822922382    -1.796520374683
    C            3.881478884003    -0.420630279039     0.188771946412
    H            4.076065485409     0.258604231910    -0.627945856006
    H            4.552428905929    -1.262863014053     0.140142270370
    H            4.010772641201     0.105498985952     1.122966539323

  Mulliken Charges: (a.u.)
   Center  Symbol    Alpha    Beta     Spin     Total
       1     O     4.19721  4.19721  0.00000 -0.39443
       2     C     2.80610  2.80610  0.00000  0.38780
       3     C     3.10243  3.10243  0.00000 -0.20487
       4     O     4.14635  4.14635  0.00000 -0.29269
       5     C     3.08639  3.08639  0.00000 -0.17277
       6     H     0.44001  0.44001  0.00000  0.11999
       7     H     0.43905  0.43905  0.00000  0.12190
       8     C     3.09950  3.09950  0.00000 -0.19900
       9     H     0.44351  0.44351  0.00000  0.11298
      10     H     0.44568  0.44568  0.00000  0.10865
      11     C     3.08913  3.08913  0.00000 -0.17826
      12     H     0.45277  0.45277  0.00000  0.09445
      13     H     0.45205  0.45205  0.00000  0.09590
      14     C     3.15601  3.15601  0.00000 -0.31202
      15     H     0.45255  0.45255  0.00000  0.09491
      16     H     0.45022  0.45022  0.00000  0.09956
      17     H     0.44922  0.44922  0.00000  0.10155
      18     H     0.44567  0.44567  0.00000  0.10866
      19     H     0.45431  0.45431  0.00000  0.09138
      20     C     3.03774  3.03774  0.00000 -0.07548
      21     H     0.45435  0.45435  0.00000  0.09131
      22     H     0.44536  0.44536  0.00000  0.10928
      23     H     0.45439  0.45439  0.00000  0.09122

   Total alpha = 36.00000, Total beta = 36.00000, Total charge = -0.00000

*** Psi4 exiting successfully. Buy a developer a beer!
