  ==> Input File <==

--------------------------------------------------------------------------
set {
	reference rhf
	basis 6-31G*
}

set_num_threads( 4 )
memory 2 gb

molecule MOL {
0 1

O	 -2.821601	 1.309235	 -0.001213
C	 -2.668563	 0.129746	 -0.000350
C	 -3.801572	 -0.864014	 -0.000442
O	 -1.481751	 -0.454642	 0.000584
H	 -4.417280	 -0.689587	 -0.874708
H	 -3.443784	 -1.883046	 -0.000565
H	 -4.417179	 -0.689832	 0.873954
C	 -0.334255	 0.388708	 0.000906
C	 0.891947	 -0.504646	 0.000751
H	 -0.365390	 1.025305	 -0.873475
H	 -0.365484	 1.024911	 0.875569
C	 2.191998	 0.301789	 0.000897
H	 0.855148	 -1.151283	 -0.871571
H	 0.855132	 -1.151660	 0.872805
C	 2.253543	 1.333276	 -1.127186
H	 2.304711	 0.810056	 0.956955
H	 3.040023	 -0.375171	 -0.086638
C	 3.551482	 2.139637	 -1.126182
H	 1.407013	 2.010798	 -1.041016
H	 2.143383	 0.826814	 -2.083445
H	 3.673717	 2.685033	 -0.194722
H	 3.565350	 2.861867	 -1.936384
H	 4.415577	 1.492214	 -1.245323

	symmetry c1
}
set optking {
	frozen_dihedral = ("
		16 12 9 13
	")
}

ee = optimize('scf')
oeprop('DIPOLE', 'QUADRUPOLE', 'MULLIKEN_CHARGES')
f=open( 'psi4out.xyz', 'w' )
f.write( "23  " )
f.write( str(ee) + "\n" )
f.write( MOL.save_string_xyz() )
f.close()
--------------------------------------------------------------------------

    Molecular point group: c1
  Charge       = 0
  Multiplicity = 1
  Basis Set: 6-31G*
  Basis Set:
  @DF-RHF Final Energy:  -422.97584813513521
    Total Energy =                       -422.9758481351349246
    Molecular point group: c1
  Basis Set: 6-31G*
  Basis Set:
  Basis Set: 6-31G*
  Basis Set:
  @DF-RHF Final Energy:  -422.97677546890884
    Total Energy =                       -422.9767754689082722
  Basis Set: 6-31G*
  Basis Set:
  Basis Set: 6-31G*
  Basis Set:
  @DF-RHF Final Energy:  -422.97751177686337
    Total Energy =                       -422.9775117768635937
  Basis Set: 6-31G*
  Basis Set:
  Basis Set: 6-31G*
  Basis Set:
  @DF-RHF Final Energy:  -422.97757993328156
    Total Energy =                       -422.9775799332811630
  Basis Set: 6-31G*
  Basis Set:
  Basis Set: 6-31G*
  Basis Set:
  @DF-RHF Final Energy:  -422.97738340575495
    Total Energy =                       -422.9773834057556314
  Basis Set: 6-31G*
  Basis Set:
  Basis Set: 6-31G*
  Basis Set:
  @DF-RHF Final Energy:  -422.97760206735609
    Total Energy =                       -422.9776020673565426
  Basis Set: 6-31G*
  Basis Set:
  Basis Set: 6-31G*
  Basis Set:
  @DF-RHF Final Energy:  -422.97760509212765
    Total Energy =                       -422.9776050921275328
  Basis Set: 6-31G*
  Basis Set:
  Charge       = 0
  Multiplicity = 1
  Basis Set: 6-31G*
  Basis Set:

    Orbital Energies (a.u.)
    -----------------------

    Doubly Occupied:

       1A    -20.602888     2A    -20.540473     3A    -11.374012
       4A    -11.281035     5A    -11.232328     6A    -11.224441
       7A    -11.223783     8A    -11.221938     9A    -11.213119
      10A     -1.467828    11A     -1.360630    12A     -1.093886
      13A     -1.040397    14A     -1.002609    15A     -0.931724
      16A     -0.850856    17A     -0.790154    18A     -0.780079
      19A     -0.689431    20A     -0.684442    21A     -0.670109
      22A     -0.637857    23A     -0.610964    24A     -0.587645
      25A     -0.578475    26A     -0.572939    27A     -0.562800
      28A     -0.529216    29A     -0.526844    30A     -0.510668
      31A     -0.495282    32A     -0.475460    33A     -0.467694
      34A     -0.461913    35A     -0.449910    36A     -0.435685

  @DF-RHF Final Energy:  -422.97760546349610

   => Energetics <=

    Nuclear Repulsion Energy =            456.0524453946263179
    One-Electron Energy =               -1479.7010744909221103
    Two-Electron Energy =                 600.6710236327992334
    DFT Exchange-Correlation Energy =       0.0000000000000000
    Empirical Dispersion Energy =           0.0000000000000000
    PCM Polarization Energy =               0.0000000000000000
    EFP Energy =                            0.0000000000000000
    Total Energy =                       -422.9776054634965021
    Molecular point group: c1
  Basis Set: 6-31G*
  Basis Set:

  -Total Gradient:
     Atom            X                  Y                   Z
    ------   -----------------  -----------------  -----------------
       1        0.000002607513    -0.000004026151     0.000005055174
       2       -0.000008740441    -0.000002418312     0.000019694225
       3       -0.000001737227     0.000000589532    -0.000003268994
       4       -0.000006444891     0.000001526770     0.000018549514
       5       -0.000002720203    -0.000004433286    -0.000003559274
       6        0.000000225771     0.000000224789    -0.000000904188
       7        0.000001561779     0.000003710484    -0.000004266639
       8       -0.000006315331    -0.000004066500    -0.000082787587
       9       -0.000777372332     0.001374047732    -0.001008155398
      10        0.000004580421    -0.000001061356     0.000015558229
      11       -0.000002575335    -0.000001769457     0.000010390405
      12       -0.000894770324     0.001486960943    -0.000605527038
      13        0.000797783718    -0.001360164968     0.000974891563
      14        0.000008877440    -0.000011218558     0.000001564494
      15        0.000002805492     0.000008177188    -0.000012967173
      16        0.000877219479    -0.001496859943     0.000670355573
      17       -0.000006248401    -0.000008500462     0.000010984879
      18       -0.000002043428     0.000006801489     0.000002326587
      19        0.000011054534     0.000005596830    -0.000004889640
      20       -0.000001407512     0.000001064088    -0.000003906782
      21        0.000003839274     0.000002689896     0.000000121616
      22        0.000003891877     0.000002713002    -0.000002566573
      23       -0.000004071871     0.000000416246     0.000003307025

  **** Optimization is complete! (in 8 steps) ****
    Final optimized geometry and variables:
    Molecular point group: c1

    Geometry (in Angstrom), charge = 0, multiplicity = 1:

    O           -2.651480995599     0.822508132194     0.240752528021
    C           -2.449959912492    -0.349203901369     0.276261156020
    C           -3.540615207386    -1.386698315133     0.349538534493
    O           -1.240893880758    -0.885443610521     0.256263704927
    H           -4.192982604690    -1.266847090591    -0.507142921141
    H           -3.141563369555    -2.390086050005     0.369887552322
    H           -4.132076194967    -1.207421935059     1.239439698633
    C           -0.129520191594     0.003160751367     0.185339556440
    C            1.126181496910    -0.849601788275     0.164595272646
    H           -0.230061025924     0.612545621737    -0.700923650729
    H           -0.149121466310     0.660375037430     1.045500763865
    C            2.428556480586    -0.043793799625     0.235225594467
    H            1.123335337247    -1.476515001649    -0.723041898804
    H            1.086249718256    -1.526763691044     1.012942903534
    C            2.620177614194     0.990639065116    -0.877521594499
    H            2.502001839836     0.441846536026     1.206755080140
    H            3.254878695212    -0.750002626564     0.199091867572
    C            3.998205994658     1.650052659049    -0.830980767171
    H            1.858120653970     1.762239294111    -0.808246109283
    H            2.482315961569     0.509080223242    -1.843673084192
    H            4.156555872370     2.159474852534     0.115330000192
    H            4.109433255688     2.383228555713    -1.623516988409
    H            4.789037736485     0.914378010612    -0.946261201262

  Mulliken Charges: (a.u.)
   Center  Symbol    Alpha    Beta     Spin     Total
       1     O     4.28407  4.28407  0.00000 -0.56814
       2     C     2.61534  2.61534  0.00000  0.76932
       3     C     3.28778  3.28778  0.00000 -0.57556
       4     O     4.31281  4.31281  0.00000 -0.62562
       5     H     0.39753  0.39753  0.00000  0.20495
       6     H     0.39986  0.39986  0.00000  0.20027
       7     H     0.39752  0.39752  0.00000  0.20495
       8     C     2.99795  2.99795  0.00000  0.00410
       9     C     3.16564  3.16564  0.00000 -0.33127
      10     H     0.40828  0.40828  0.00000  0.18343
      11     H     0.41145  0.41145  0.00000  0.17709
      12     C     3.16010  3.16010  0.00000 -0.32020
      13     H     0.41499  0.41499  0.00000  0.17003
      14     H     0.41214  0.41214  0.00000  0.17573
      15     C     3.15708  3.15708  0.00000 -0.31415
      16     H     0.42062  0.42062  0.00000  0.15876
      17     H     0.41785  0.41785  0.00000  0.16431
      18     C     3.23945  3.23945  0.00000 -0.47890
      19     H     0.41914  0.41914  0.00000  0.16172
      20     H     0.42136  0.42136  0.00000  0.15729
      21     H     0.42055  0.42055  0.00000  0.15890
      22     H     0.41744  0.41744  0.00000  0.16512
      23     H     0.42107  0.42107  0.00000  0.15787

   Total alpha = 36.00000, Total beta = 36.00000, Total charge =  0.00000
