  ==> Input File <==

--------------------------------------------------------------------------
set {
	reference rhf
	basis 6-31G*
}

set_num_threads( 4 )
memory 2 gb

molecule MOL {
0 1

O	 3.104529	 0.779232	 -0.958101
C	 2.630363	 -0.052760	 -0.253818
C	 1.245376	 -0.013843	 0.345420
O	 3.277803	 -1.154146	 0.105906
C	 0.455112	 1.231400	 -0.050772
H	 0.742821	 -0.927273	 0.044959
H	 1.358416	 -0.078456	 1.424653
C	 -0.998893	 1.219485	 0.433193
H	 0.482531	 1.345121	 -1.130325
H	 0.957290	 2.103070	 0.354729
C	 -1.883438	 0.145884	 -0.207175
H	 -1.431207	 2.195402	 0.224832
H	 -1.019646	 1.105716	 1.516076
C	 -3.347647	 0.245583	 0.225435
H	 -1.822183	 0.231698	 -1.291012
H	 -1.510341	 -0.844814	 0.042401
C	 -4.239992	 -0.825570	 -0.404234
H	 -3.732888	 1.230466	 -0.033079
H	 -3.408585	 0.170602	 1.310038
C	 -5.701275	 -0.716658	 0.029921
H	 -4.179496	 -0.752714	 -1.488058
H	 -3.859041	 -1.810759	 -0.143352
H	 -6.308102	 -1.488908	 -0.432678
H	 -6.122175	 0.245478	 -0.248167
H	 -5.799072	 -0.820114	 1.106957
C	 4.594865	 -1.315604	 -0.388223
H	 4.594952	 -1.342316	 -1.468404
H	 4.946044	 -2.255205	 0.009056
H	 5.228457	 -0.507091	 -0.052954

	symmetry c1
}
set optking {
	frozen_dihedral = ("
		6 3 5 9
	")
}

ee = optimize('scf')
oeprop('DIPOLE', 'QUADRUPOLE', 'MULLIKEN_CHARGES')
f=open( 'psi4out.xyz', 'w' )
f.write( "29  " )
f.write( str(ee) + "\n" )
f.write( MOL.save_string_xyz() )
f.close()
--------------------------------------------------------------------------

    Molecular point group: c1
  Charge       = 0
  Multiplicity = 1
  Basis Set: 6-31G*
  Basis Set:
  @DF-RHF Final Energy:  -501.04377193052244
    Total Energy =                       -501.0437719305219844
    Molecular point group: c1
  Basis Set: 6-31G*
  Basis Set:
  Basis Set: 6-31G*
  Basis Set:
  @DF-RHF Final Energy:  -501.04357425427395
    Total Energy =                       -501.0435742542740627
  Basis Set: 6-31G*
  Basis Set:
  Basis Set: 6-31G*
  Basis Set:
  @DF-RHF Final Energy:  -501.04383773320876
    Total Energy =                       -501.0438377332085338
  Basis Set: 6-31G*
  Basis Set:
  Basis Set: 6-31G*
  Basis Set:
  @DF-RHF Final Energy:  -501.04384529902154
    Total Energy =                       -501.0438452990215410
  Basis Set: 6-31G*
  Basis Set:
  Basis Set: 6-31G*
  Basis Set:
  @DF-RHF Final Energy:  -501.04381529331454
    Total Energy =                       -501.0438152933147649
  Basis Set: 6-31G*
  Basis Set:
  Basis Set: 6-31G*
  Basis Set:
  @DF-RHF Final Energy:  -501.04384906498353
    Total Energy =                       -501.0438490649835330
  Basis Set: 6-31G*
  Basis Set:
  Charge       = 0
  Multiplicity = 1
  Basis Set: 6-31G*
  Basis Set:

    Orbital Energies (a.u.)
    -----------------------

    Doubly Occupied:

       1A    -20.603414     2A    -20.545240     3A    -11.372142
       4A    -11.280684     5A    -11.234615     6A    -11.219089
       7A    -11.217812     8A    -11.215908     9A    -11.215760
      10A    -11.214396    11A    -11.208996    12A     -1.469118
      13A     -1.362554    14A     -1.097874    15A     -1.066759
      16A     -1.019541    17A     -0.977281    18A     -0.928545
      19A     -0.861472    20A     -0.799330    21A     -0.790380
      22A     -0.764204    23A     -0.701264    24A     -0.682126
      25A     -0.672273    26A     -0.650173    27A     -0.628483
      28A     -0.605155    29A     -0.595150    30A     -0.580892
      31A     -0.566736    32A     -0.548605    33A     -0.532790
      34A     -0.530613    35A     -0.516382    36A     -0.510408
      37A     -0.495966    38A     -0.477760    39A     -0.470144
      40A     -0.462392    41A     -0.458906    42A     -0.455997
      43A     -0.441415    44A     -0.435162

  @DF-RHF Final Energy:  -501.04384951056181

   => Energetics <=

    Nuclear Repulsion Energy =            610.4326121069325382
    One-Electron Energy =               -1891.9851138949925371
    Two-Electron Energy =                 780.5086522774975037
    DFT Exchange-Correlation Energy =       0.0000000000000000
    Empirical Dispersion Energy =           0.0000000000000000
    PCM Polarization Energy =               0.0000000000000000
    EFP Energy =                            0.0000000000000000
    Total Energy =                       -501.0438495105624952
    Molecular point group: c1
  Basis Set: 6-31G*
  Basis Set:

  -Total Gradient:
     Atom            X                  Y                   Z
    ------   -----------------  -----------------  -----------------
       1       -0.000003142062    -0.000047432143    -0.000060043966
       2        0.000056207594     0.000096117180     0.000162408579
       3        0.001203567916     0.000219624453    -0.001730976674
       4        0.000006744946    -0.000024106877    -0.000054422162
       5       -0.001734452801    -0.001068598265     0.000245609220
       6       -0.000749015505    -0.000018908398     0.001343627916
       7        0.000001944523     0.000000404842    -0.000009342452
       8       -0.000000761022     0.000020736261     0.000003076700
       9        0.001243430154     0.000833946043     0.000104638452
      10       -0.000003173716    -0.000005607120     0.000001155789
      11       -0.000013068078     0.000022451749    -0.000038430072
      12        0.000010232859     0.000013757269     0.000000103010
      13       -0.000024891151     0.000000411886    -0.000003710612
      14        0.000008603947    -0.000037278964     0.000035402891
      15       -0.000013904300    -0.000004633782    -0.000021968485
      16       -0.000002507979     0.000013158908     0.000014821409
      17        0.000001694081    -0.000002834775     0.000003386931
      18        0.000009929333    -0.000010637575     0.000009823757
      19        0.000002399629    -0.000009142807     0.000012145751
      20       -0.000002915151     0.000015245605    -0.000015399312
      21        0.000009120153    -0.000009059302    -0.000005517380
      22       -0.000007298461     0.000003167819     0.000011351236
      23       -0.000000132230     0.000003414177    -0.000004261151
      24       -0.000005839510     0.000002881254     0.000002935609
      25        0.000005254246    -0.000001796421    -0.000003963022
      26       -0.000000955179    -0.000004730613    -0.000000641817
      27        0.000002107841    -0.000000820139    -0.000000868859
      28        0.000002189317    -0.000000572413    -0.000001725951
      29       -0.000001369402     0.000000842147     0.000000784664

  **** Optimization is complete! (in 7 steps) ****
    Final optimized geometry and variables:
    Molecular point group: c1

    Geometry (in Angstrom), charge = 0, multiplicity = 1:

    O            3.149811851196     0.828485752365    -0.861732994876
    C            2.681605884941     0.001587454542    -0.147499706394
    C            1.289828713342     0.028614253680     0.434825628251
    O            3.343432226246    -1.081429199468     0.240492152596
    C            0.484566618210     1.258424278983     0.020007072712
    H            0.799192609373    -0.896966856796     0.152708868772
    H            1.392931649710    -0.017951888444     1.516077887862
    C           -0.962314087652     1.252108741963     0.524823659905
    H            0.506079165503     1.356440286621    -1.060613620097
    H            0.988785265290     2.140372109330     0.402353257990
    C           -1.868754339330     0.204521268864    -0.128246730993
    H           -1.386594381041     2.236926747168     0.344046381002
    H           -0.970306011852     1.114832296585     1.605170816022
    C           -3.320795153598     0.296759173034     0.345254464386
    H           -1.834508095808     0.327540272680    -1.209508994066
    H           -1.496137950185    -0.796372196934     0.076993934006
    C           -4.236583241524    -0.743467240680    -0.302341740590
    H           -3.705190215509     1.293303613538     0.134625502004
    H           -3.355007993838     0.180370844880     1.427377388565
    C           -5.686492287213    -0.639280973021     0.169480266833
    H           -4.200417011110    -0.631126269901    -1.383857435314
    H           -3.858238629112    -1.740546697210    -0.086775426990
    H           -6.310452164602    -1.389124561362    -0.306984113758
    H           -6.105338683877     0.335739452727    -0.063112340143
    H           -5.760383048071    -0.781762991516     1.243964933652
    C            4.668762183982    -1.229408756330    -0.235456143602
    H            4.682031983584    -1.276009157269    -1.314882457572
    H            5.031030672798    -2.155387777480     0.183246254477
    H            5.284578785361    -0.404129122534     0.091986297659

  Mulliken Charges: (a.u.)
   Center  Symbol    Alpha    Beta     Spin     Total
       1     O     4.28599  4.28599  0.00000 -0.57197
       2     C     2.60458  2.60458  0.00000  0.79083
       3     C     3.21000  3.21000  0.00000 -0.42000
       4     O     4.30744  4.30744  0.00000 -0.61488
       5     C     3.15429  3.15429  0.00000 -0.30858
       6     H     0.39890  0.39890  0.00000  0.20220
       7     H     0.40104  0.40104  0.00000  0.19792
       8     C     3.15673  3.15673  0.00000 -0.31345
       9     H     0.41015  0.41015  0.00000  0.17971
      10     H     0.41160  0.41160  0.00000  0.17679
      11     C     3.15457  3.15457  0.00000 -0.30914
      12     H     0.41809  0.41809  0.00000  0.16383
      13     H     0.42405  0.42405  0.00000  0.15190
      14     C     3.15034  3.15034  0.00000 -0.30069
      15     H     0.42204  0.42204  0.00000  0.15593
      16     H     0.42414  0.42414  0.00000  0.15172
      17     C     3.15147  3.15147  0.00000 -0.30295
      18     H     0.42335  0.42335  0.00000  0.15329
      19     H     0.42402  0.42402  0.00000  0.15196
      20     C     3.23935  3.23935  0.00000 -0.47870
      21     H     0.42269  0.42269  0.00000  0.15463
      22     H     0.42344  0.42344  0.00000  0.15312
      23     H     0.41922  0.41922  0.00000  0.16156
      24     H     0.42155  0.42155  0.00000  0.15690
      25     H     0.42187  0.42187  0.00000  0.15626
      26     C     3.09241  3.09241  0.00000 -0.18481
      27     H     0.40907  0.40907  0.00000  0.18185
      28     H     0.40851  0.40851  0.00000  0.18299
      29     H     0.40911  0.40911  0.00000  0.18178

   Total alpha = 44.00000, Total beta = 44.00000, Total charge = -0.00000
