  ==> Input File <==

--------------------------------------------------------------------------
set {
	reference rhf
	basis cc-pvtz
}

set_num_threads( 4 )
memory 2 gb

molecule MOL {
0 1

O	 0.074770	 1.259872	 0.000487
C	 0.029490	 0.077183	 0.000078
C	 -1.232113	 -0.748027	 0.000015
O	 1.106773	 -0.690081	 -0.000204
C	 -2.501422	 0.088592	 -0.000052
H	 -1.188777	 -1.400384	 -0.865133
H	 -1.188857	 -1.400312	 0.865225
H	 -2.548170	 0.725504	 -0.873205
H	 -3.371613	 -0.556398	 -0.000040
H	 -2.548215	 0.725571	 0.873047
C	 0.917987	 -2.073769	 0.217535
H	 0.465598	 -2.249622	 1.182240
H	 1.899468	 -2.517759	 0.180203
H	 0.287496	 -2.497782	 -0.549888

	symmetry c1
}
set optking {
	frozen_dihedral = ("
		11 4 2 3
	")
}

ee = optimize('scf')
oeprop('DIPOLE', 'QUADRUPOLE', 'MULLIKEN_CHARGES')
f=open( 'psi4out.xyz', 'w' )
f.write( "14  " )
f.write( str(ee) + "\n" )
f.write( MOL.save_string_xyz() )
f.close()
--------------------------------------------------------------------------

    Molecular point group: c1
  Charge       = 0
  Multiplicity = 1
  Basis Set: CC-PVTZ
  Basis Set:
  @DF-RHF Final Energy:  -305.96221660527010
    Total Energy =                       -305.9622166052699868
    Molecular point group: c1
  Basis Set: CC-PVTZ
  Basis Set:
  Basis Set: CC-PVTZ
  Basis Set:
  @DF-RHF Final Energy:  -305.96061219472864
    Total Energy =                       -305.9606121947285260
  Basis Set: CC-PVTZ
  Basis Set:
  Basis Set: CC-PVTZ
  Basis Set:
  @DF-RHF Final Energy:  -305.97030416952913
    Total Energy =                       -305.9703041695286174
  Basis Set: CC-PVTZ
  Basis Set:
  Basis Set: CC-PVTZ
  Basis Set:
  @DF-RHF Final Energy:  -305.97251125858338
    Total Energy =                       -305.9725112585833813
  Basis Set: CC-PVTZ
  Basis Set:
  @DF-RHF Final Energy:  -305.97115790262046
    Total Energy =                       -305.9711579026203481
  Basis Set: CC-PVTZ
  Basis Set:
  @DF-RHF Final Energy:  -305.97314346187920
    Total Energy =                       -305.9731434618789763
  Basis Set: CC-PVTZ
  Basis Set:
  Basis Set: CC-PVTZ
  Basis Set:
  @DF-RHF Final Energy:  -305.97336995990537
    Total Energy =                       -305.9733699599054262
  Basis Set: CC-PVTZ
  Basis Set:
  Basis Set: CC-PVTZ
  Basis Set:
  @DF-RHF Final Energy:  -305.97337741866039
    Total Energy =                       -305.9733774186606183
  Basis Set: CC-PVTZ
  Basis Set:
  Charge       = 0
  Multiplicity = 1
  Basis Set: CC-PVTZ
  Basis Set:

    Orbital Energies (a.u.)
    -----------------------

    Doubly Occupied:

       1A    -20.595794     2A    -20.528609     3A    -11.366824
       4A    -11.294076     5A    -11.247060     6A    -11.218992
       7A     -1.466875     8A     -1.368348     9A     -1.064419
      10A     -0.987800    11A     -0.900583    12A     -0.769715
      13A     -0.707599    14A     -0.691419    15A     -0.675679
      16A     -0.626145    17A     -0.606336    18A     -0.558857
      19A     -0.556049    20A     -0.527332    21A     -0.510232
      22A     -0.506489    23A     -0.451790    24A     -0.435807

  @DF-RHF Final Energy:  -305.97337805294052

   => Energetics <=

    Nuclear Repulsion Energy =            248.0905392918745633
    One-Electron Energy =                -908.8021707180573685
    Two-Electron Energy =                 354.7382533732426282
    DFT Exchange-Correlation Energy =       0.0000000000000000
    Empirical Dispersion Energy =           0.0000000000000000
    PCM Polarization Energy =               0.0000000000000000
    EFP Energy =                            0.0000000000000000
    Total Energy =                       -305.9733780529401201
    Molecular point group: c1
  Basis Set: CC-PVTZ
  Basis Set:

  -Total Gradient:
     Atom            X                  Y                   Z
    ------   -----------------  -----------------  -----------------
       1       -0.000013912510    -0.000118498144    -0.000010889908
       2        0.000036688367     0.000090320963     0.001495132915
       3        0.000022357066     0.000030102771    -0.000705105384
       4       -0.000118610987    -0.000098931670    -0.001467005969
       5       -0.000005614790    -0.000008383633     0.000017454351
       6       -0.000012659469     0.000006964832    -0.000005774215
       7        0.000039841236     0.000015698839     0.000012321762
       8        0.000002113739    -0.000001308575    -0.000005034282
       9       -0.000009831719     0.000007596613    -0.000000896832
      10        0.000001671921    -0.000002733522    -0.000001192997
      11        0.000059959685     0.000112068666     0.000593235975
      12       -0.000034261599     0.000043139396     0.000019360888
      13       -0.000008414818    -0.000024667709     0.000008344676
      14        0.000040673879    -0.000051368823     0.000050049021

  **** Optimization is complete! (in 9 steps) ****
    Final optimized geometry and variables:
    Molecular point group: c1

    Geometry (in Angstrom), charge = 0, multiplicity = 1:

    O            0.323250410650     1.556306057283    -0.050720835372
    C            0.238789511120     0.380806736828    -0.026429466868
    C           -1.083767858837    -0.355421359178    -0.036731894826
    O            1.355016239458    -0.345175783901    -0.021575788252
    C           -2.277708035796     0.586548892423    -0.055557355206
    H           -1.097657216632    -1.006570589080    -0.904484067946
    H           -1.127658611690    -1.006992833798     0.828932961778
    H           -2.255806638871     1.222287762449    -0.929533946822
    H           -3.198555652542     0.016039684131    -0.066142401775
    H           -2.279533695623     1.227023696922     0.815500252255
    C            1.369319709176    -1.735667047067     0.178507740495
    H            0.968580709614    -2.001612963051     1.147913555186
    H            2.405601126723    -2.029131804584     0.138155998525
    H            0.826756964726    -2.262465625221    -0.594840131025

  Mulliken Charges: (a.u.)
   Center  Symbol    Alpha    Beta     Spin     Total
       1     O     4.18056  4.18056  0.00000 -0.36113
       2     C     2.80739  2.80739  0.00000  0.38522
       3     C     3.12210  3.12210  0.00000 -0.24419
       4     O     4.12814  4.12814  0.00000 -0.25629
       5     C     3.13904  3.13904  0.00000 -0.27809
       6     H     0.44017  0.44017  0.00000  0.11965
       7     H     0.44243  0.44243  0.00000  0.11513
       8     H     0.44476  0.44476  0.00000  0.11049
       9     H     0.45147  0.45147  0.00000  0.09707
      10     H     0.44583  0.44583  0.00000  0.10835
      11     C     3.04469  3.04469  0.00000 -0.08938
      12     H     0.45974  0.45974  0.00000  0.08052
      13     H     0.43274  0.43274  0.00000  0.13452
      14     H     0.46094  0.46094  0.00000  0.07813

   Total alpha = 24.00000, Total beta = 24.00000, Total charge = -0.00000
