  ==> Input File <==

--------------------------------------------------------------------------
set {
	reference rhf
	basis 6-31G*
}

set_num_threads( 4 )
memory 2 gb

molecule MOL {
0 1

H	 1.128778	 0.332095	 1.509242
C	 1.142692	 0.156666	 0.426313
C	 0.065331	 0.871482	 -0.349150
O	 1.969069	 -0.549434	 -0.053524
C	 -1.339775	 0.583656	 0.198860
H	 0.149735	 0.588539	 -1.392094
H	 0.268270	 1.938846	 -0.273576
C	 -1.808407	 -0.848507	 -0.061364
H	 -2.036183	 1.280685	 -0.256307
H	 -1.360094	 0.788874	 1.267089
H	 -1.828843	 -1.063152	 -1.125336
H	 -2.808409	 -1.004529	 0.329750
H	 -1.153967	 -1.577789	 0.406873

	symmetry c1
}
set optking {
	frozen_dihedral = ("
		6 3 5 9
	")
}

ee = optimize('scf')
oeprop('DIPOLE', 'QUADRUPOLE', 'MULLIKEN_CHARGES')
f=open( 'psi4out.xyz', 'w' )
f.write( "13  " )
f.write( str(ee) + "\n" )
f.write( MOL.save_string_xyz() )
f.close()
--------------------------------------------------------------------------

    Molecular point group: c1
  Charge       = 0
  Multiplicity = 1
  Basis Set: 6-31G*
  Basis Set:
  @DF-RHF Final Energy:  -230.98464930538844
    Total Energy =                       -230.9846493053882739
    Molecular point group: c1
  Basis Set: 6-31G*
  Basis Set:
  Basis Set: 6-31G*
  Basis Set:
  @DF-RHF Final Energy:  -230.98465452546293
    Total Energy =                       -230.9846545254627870
  Basis Set: 6-31G*
  Basis Set:
  Basis Set: 6-31G*
  Basis Set:
  @DF-RHF Final Energy:  -230.98460704043450
    Total Energy =                       -230.9846070404346960
  Basis Set: 6-31G*
  Basis Set:
  Basis Set: 6-31G*
  Basis Set:
  @DF-RHF Final Energy:  -230.98465905800421
    Total Energy =                       -230.9846590580041834
  Basis Set: 6-31G*
  Basis Set:
  Charge       = 0
  Multiplicity = 1
  Basis Set: 6-31G*
  Basis Set:

    Orbital Energies (a.u.)
    -----------------------

    Doubly Occupied:

       1A    -20.563299     2A    -11.327139     3A    -11.238859
       4A    -11.235882     5A    -11.221263     6A     -1.403156
       7A     -1.086788     8A     -0.973036     9A     -0.847191
      10A     -0.789603    11A     -0.665210    12A     -0.649559
      13A     -0.627423    14A     -0.593590    15A     -0.559030
      16A     -0.533161    17A     -0.506731    18A     -0.493678
      19A     -0.481451    20A     -0.410705

  @DF-RHF Final Energy:  -230.98465989118225

   => Energetics <=

    Nuclear Repulsion Energy =            173.7341085894195487
    One-Electron Energy =                -657.0240242712909549
    Two-Electron Energy =                 252.3052557906890740
    DFT Exchange-Correlation Energy =       0.0000000000000000
    Empirical Dispersion Energy =           0.0000000000000000
    PCM Polarization Energy =               0.0000000000000000
    EFP Energy =                            0.0000000000000000
    Total Energy =                       -230.9846598911823605
    Molecular point group: c1
  Basis Set: 6-31G*
  Basis Set:

  -Total Gradient:
     Atom            X                  Y                   Z
    ------   -----------------  -----------------  -----------------
       1        0.000019484486     0.000005173512     0.000013635261
       2       -0.000028705346    -0.000041801607     0.000041175339
       3       -0.000268986010     0.000834380005    -0.000140303792
       4        0.000010376488     0.000038192323    -0.000010728641
       5       -0.000025249288    -0.000669107853    -0.000509918450
       6        0.000196829430    -0.000602262751     0.000165689154
       7       -0.000001857608    -0.000006003262    -0.000015131531
       8       -0.000010584639     0.000018109356    -0.000043379428
       9        0.000118045270     0.000413797529     0.000475552557
      10       -0.000010504302     0.000007132996     0.000022247750
      11       -0.000011077396    -0.000013360823    -0.000005142120
      12        0.000009223587     0.000001584787     0.000007306182
      13        0.000003005323     0.000014165791    -0.000001002283

  **** Optimization is complete! (in 5 steps) ****
    Final optimized geometry and variables:
    Molecular point group: c1

    Geometry (in Angstrom), charge = 0, multiplicity = 1:

    H            1.121094336265     0.305741356319     1.479154956151
    C            1.133150742260     0.131180465692     0.396060995661
    C            0.060424985483     0.854475881012    -0.378662620979
    O            1.953675301683    -0.581077199355    -0.084689210464
    C           -1.345986598941     0.564765253565     0.165430573852
    H            0.148233255777     0.572391159556    -1.421582258257
    H            0.266624637334     1.920589391321    -0.297429687816
    C           -1.808210210614    -0.870010334859    -0.089614838736
    H           -2.043792837964     1.260264035290    -0.289827199167
    H           -1.368878345762     0.773542795039     1.233180392342
    H           -1.833498360676    -1.086734886182    -1.153064603161
    H           -2.804988098695    -1.031235694326     0.307541820527
    H           -1.146260036449    -1.593981697603     0.376221370641

  Mulliken Charges: (a.u.)
   Center  Symbol    Alpha    Beta     Spin     Total
       1     H     0.43234  0.43234  0.00000  0.13531
       2     C     2.83167  2.83167  0.00000  0.33665
       3     C     3.20749  3.20749  0.00000 -0.41499
       4     O     4.23682  4.23682  0.00000 -0.47363
       5     C     3.16617  3.16617  0.00000 -0.33234
       6     H     0.39974  0.39974  0.00000  0.20051
       7     H     0.40700  0.40700  0.00000  0.18601
       8     C     3.24188  3.24188  0.00000 -0.48376
       9     H     0.41156  0.41156  0.00000  0.17688
      10     H     0.41868  0.41868  0.00000  0.16265
      11     H     0.41575  0.41575  0.00000  0.16850
      12     H     0.41536  0.41536  0.00000  0.16928
      13     H     0.41555  0.41555  0.00000  0.16891

   Total alpha = 20.00000, Total beta = 20.00000, Total charge = -0.00000
