  ==> Input File <==

--------------------------------------------------------------------------
set {
	reference rhf
	basis 6-31G*
}

set_num_threads( 4 )
memory 2 gb

molecule MOL {
0 1

O	 1.954005	 1.506691	 -1.297722
C	 0.871628	 1.273656	 -0.829901
C	 -0.266599	 2.259428	 -1.016394
N	 0.623947	 0.147590	 -0.102813
H	 -0.642183	 2.617682	 -0.064200
H	 0.119035	 3.094191	 -1.581640
H	 -1.094149	 1.815215	 -1.558997
C	 1.665360	 -0.855771	 0.000151
C	 -0.698296	 -0.289964	 0.287654
H	 2.465253	 -0.618490	 -0.692587
H	 1.257730	 -1.821716	 -0.242189
H	 2.081488	 -0.891645	 1.004627
H	 -0.633101	 -0.813815	 1.233893
H	 -1.368857	 0.543826	 0.422102
H	 -1.133498	 -0.969700	 -0.442668

	symmetry c1
}
set optking {
	frozen_dihedral = ("
		2 4 8 10
	")
}

ee = optimize('scf')
oeprop('DIPOLE', 'QUADRUPOLE', 'MULLIKEN_CHARGES')
f=open( 'psi4out.xyz', 'w' )
f.write( "15  " )
f.write( str(ee) + "\n" )
f.write( MOL.save_string_xyz() )
f.close()
--------------------------------------------------------------------------

    Molecular point group: c1
  Charge       = 0
  Multiplicity = 1
  Basis Set: 6-31G*
  Basis Set:
  @DF-RHF Final Energy:  -286.02867877093865
    Total Energy =                       -286.0286787709385976
    Molecular point group: c1
  Basis Set: 6-31G*
  Basis Set:
  Basis Set: 6-31G*
  Basis Set:
  @DF-RHF Final Energy:  -286.02917808994539
    Total Energy =                       -286.0291780899451624
  Basis Set: 6-31G*
  Basis Set:
  Basis Set: 6-31G*
  Basis Set:
  @DF-RHF Final Energy:  -286.02926347233165
    Total Energy =                       -286.0292634723316496
  Basis Set: 6-31G*
  Basis Set:
  Basis Set: 6-31G*
  Basis Set:
  @DF-RHF Final Energy:  -286.02940107250720
    Total Energy =                       -286.0294010725070279
  Basis Set: 6-31G*
  Basis Set:
  @DF-RHF Final Energy:  -286.02947187609925
    Total Energy =                       -286.0294718760990236
  @DF-RHF Final Energy:  -286.02952323969339
    Total Energy =                       -286.0295232396933898
  @DF-RHF Final Energy:  -286.02954555039264
    Total Energy =                       -286.0295455503926405
  @DF-RHF Final Energy:  -286.02958256353122
    Total Energy =                       -286.0295825635314486
  @DF-RHF Final Energy:  -286.02963984789443
    Total Energy =                       -286.0296398478946003
  @DF-RHF Final Energy:  -286.02969015593499
    Total Energy =                       -286.0296901559352136
  @DF-RHF Final Energy:  -286.02970476958501
    Total Energy =                       -286.0297047695850097
  @DF-RHF Final Energy:  -286.02973031738020
    Total Energy =                       -286.0297303173800856
  Basis Set: 6-31G*
  Basis Set:
  @DF-RHF Final Energy:  -286.02975122617374
    Total Energy =                       -286.0297512261737438
  Basis Set: 6-31G*
  Basis Set:
  Basis Set: 6-31G*
  Basis Set:
  @DF-RHF Final Energy:  -286.02976594013580
    Total Energy =                       -286.0297659401358601
  Basis Set: 6-31G*
  Basis Set:
  Basis Set: 6-31G*
  Basis Set:
  @DF-RHF Final Energy:  -286.02976844261207
    Total Energy =                       -286.0297684426120668
  Basis Set: 6-31G*
  Basis Set:
  Charge       = 0
  Multiplicity = 1
  Basis Set: 6-31G*
  Basis Set:

    Orbital Energies (a.u.)
    -----------------------

    Doubly Occupied:

       1A    -20.512896     2A    -15.584374     3A    -11.341879
       4A    -11.266604     5A    -11.247719     6A    -11.228224
       7A     -1.383263     8A     -1.243969     9A     -1.014183
      10A     -0.972919    11A     -0.919965    12A     -0.738279
      13A     -0.681172    14A     -0.659450    15A     -0.651290
      16A     -0.589651    17A     -0.575681    18A     -0.566939
      19A     -0.561349    20A     -0.547240    21A     -0.529730
      22A     -0.504038    23A     -0.409262    24A     -0.365640

  @DF-RHF Final Energy:  -286.02976864323779

   => Energetics <=

    Nuclear Repulsion Energy =            252.2787374300498300
    One-Electron Energy =                -888.4255793807481041
    Two-Electron Energy =                 350.1170733074604868
    DFT Exchange-Correlation Energy =       0.0000000000000000
    Empirical Dispersion Energy =           0.0000000000000000
    PCM Polarization Energy =               0.0000000000000000
    EFP Energy =                            0.0000000000000000
    Total Energy =                       -286.0297686432377304
    Molecular point group: c1
  Basis Set: 6-31G*
  Basis Set:

  -Total Gradient:
     Atom            X                  Y                   Z
    ------   -----------------  -----------------  -----------------
       1       -0.000018935449    -0.000015601683     0.000016520722
       2       -0.000009191363    -0.000072545045    -0.000188098715
       3        0.000008218799     0.000054839546     0.000017151019
       4       -0.000004626513     0.000142988632     0.000233542607
       5        0.000002714714     0.000020408011    -0.000014008369
       6       -0.000000112595    -0.000003304340    -0.000004998982
       7        0.000012256560     0.000005389176    -0.000010379745
       8       -0.000126671435    -0.000140407626    -0.000303669872
       9        0.000039457817     0.000014879329     0.000021114812
      10        0.000048418465     0.000106364274     0.000190098125
      11        0.000002030241    -0.000021434002     0.000006766819
      12       -0.000007421834    -0.000000806458     0.000003817611
      13       -0.000011767269    -0.000010715071     0.000038343046
      14        0.000043422310    -0.000074209399     0.000012011190
      15        0.000022207548    -0.000005845346    -0.000018210268

  **** Optimization is complete! (in 16 steps) ****
    Final optimized geometry and variables:
    Molecular point group: c1

    Geometry (in Angstrom), charge = 0, multiplicity = 1:

    O            1.286087187445     0.885131271822    -0.735753982679
    C            0.185919410151     0.615347126940    -0.332747328940
    C           -0.933943826792     1.633390954902    -0.444642129162
    N           -0.108811501709    -0.595115182841     0.217017517646
    H           -1.346297635609     1.884788012655     0.526401901014
    H           -0.516876445167     2.521957612735    -0.893472703474
    H           -1.741565955151     1.267156199348    -1.069196389585
    C            0.953183723372    -1.561115002132     0.414339025641
    C           -1.368645956219    -0.932120468695     0.840899604879
    H            1.843558009877    -1.220124695528    -0.083945395422
    H            0.658477664639    -2.523708620162     0.008382059729
    H            1.165944521261    -1.688786093587     1.473098504899
    H           -1.319118145525    -0.835476042346     1.923637845440
    H           -2.172348901280    -0.312016118559     0.478225099219
    H           -1.617608739071    -1.961538537674     0.608833069631

  Mulliken Charges: (a.u.)
   Center  Symbol    Alpha    Beta     Spin     Total
       1     O     4.30572  4.30572  0.00000 -0.61144
       2     C     2.62269  2.62269  0.00000  0.75462
       3     C     3.29892  3.29892  0.00000 -0.59785
       4     N     3.82451  3.82451  0.00000 -0.64901
       5     H     0.40798  0.40798  0.00000  0.18404
       6     H     0.39026  0.39026  0.00000  0.21948
       7     H     0.40673  0.40673  0.00000  0.18654
       8     C     3.14664  3.14664  0.00000 -0.29328
       9     C     3.14116  3.14116  0.00000 -0.28232
      10     H     0.38226  0.38226  0.00000  0.23548
      11     H     0.41866  0.41866  0.00000  0.16267
      12     H     0.42030  0.42030  0.00000  0.15940
      13     H     0.41595  0.41595  0.00000  0.16810
      14     H     0.40699  0.40699  0.00000  0.18602
      15     H     0.41122  0.41122  0.00000  0.17755

   Total alpha = 24.00000, Total beta = 24.00000, Total charge =  0.00000
