                              Psi4 1.0.54 Driver

  ==> Input File <==

--------------------------------------------------------------------------
set {
	reference rhf
	basis cc-pvtz
}

set_num_threads( 4 )
memory 2 gb

molecule MOL {
0 1

H	 -2.260473	 0.935176	 2.138503
C	 -1.634790	 0.679755	 2.990656
O	 -0.378732	 0.246960	 2.587483
H	 -1.500841	 1.561473	 3.600179
H	 -2.148791	 -0.077558	 3.579862
C	 -0.392259	 -0.896028	 1.796894
C	 1.007494	 -1.212593	 1.333403
H	 -0.775963	 -1.743324	 2.365078
H	 -1.033224	 -0.756275	 0.929102
O	 1.401606	 -0.295166	 0.366636
H	 1.681411	 -1.185793	 2.186954
H	 1.023742	 -2.222605	 0.924032
C	 2.714315	 -0.441627	 -0.061017
H	 2.765292	 -0.641548	 -1.128869
H	 3.305661	 0.447341	 0.150952
H	 3.143725	 -1.278506	 0.470147

	symmetry c1
}
set optking {
	frozen_dihedral = ("
		7 10 13 14
	")
}

ee,wfn = optimize('scf', return_wfn=True)
oeprop( wfn, 'DIPOLE', 'QUADRUPOLE', 'MULLIKEN_CHARGES')
f=open( 'psi4out.xyz', 'w' )
f.write( "16  " )
f.write( str(ee) + "\n" )
f.write( MOL.save_string_xyz() )
f.close()
--------------------------------------------------------------------------

    Molecular point group: c1
  Charge       = 0
  Multiplicity = 1
  Basis Set: CC-PVTZ
  Basis Set:
  @DF-RHF Final Energy:  -307.09313255133935
    Total Energy =                       -307.0931325513395791
    Molecular point group: c1
  Basis Set: CC-PVTZ
  Basis Set:
  Basis Set: CC-PVTZ
  Basis Set:
  @DF-RHF Final Energy:  -307.09396571062427
    Total Energy =                       -307.0939657106241611
  Basis Set: CC-PVTZ
  Basis Set:
  Basis Set: CC-PVTZ
  Basis Set:
  @DF-RHF Final Energy:  -307.09427511259207
    Total Energy =                       -307.0942751125920722
  Basis Set: CC-PVTZ
  Basis Set:
  Basis Set: CC-PVTZ
  Basis Set:
  @DF-RHF Final Energy:  -307.09427849013150
    Total Energy =                       -307.0942784901315008
  Basis Set: CC-PVTZ
  Basis Set:
  Charge       = 0
  Multiplicity = 1
  Basis Set: CC-PVTZ
  Basis Set:

    Orbital Energies (a.u.)
    -----------------------

    Doubly Occupied:

       1A    -20.547400     2A    -20.544065     3A    -11.267815
       4A    -11.266527     5A    -11.261311     6A    -11.261063
       7A     -1.389447     8A     -1.371368     9A     -1.031702
      10A     -0.937250    11A     -0.892167    12A     -0.823933
      13A     -0.684826    14A     -0.680969    15A     -0.658638
      16A     -0.636229    17A     -0.630284    18A     -0.597290
      19A     -0.554684    20A     -0.538234    21A     -0.508712
      22A     -0.479047    23A     -0.463813    24A     -0.420867
      25A     -0.410059

  @DF-RHF Final Energy:  -307.09427867831931

   => Energetics <=

    Nuclear Repulsion Energy =            258.6165678970901922
    One-Electron Energy =                -931.7062883373068871
    Two-Electron Energy =                 365.9954417618973821
    DFT Exchange-Correlation Energy =       0.0000000000000000
    Empirical Dispersion Energy =           0.0000000000000000
    PCM Polarization Energy =               0.0000000000000000
    EFP Energy =                            0.0000000000000000
    Total Energy =                       -307.0942786783193696
    Molecular point group: c1
  Basis Set: CC-PVTZ
  Basis Set:

  -Total Gradient:
     Atom            X                  Y                   Z
    ------   -----------------  -----------------  -----------------
       1        0.000000677359    -0.000000864011    -0.000000183863
       2       -0.000001739028     0.000004746738     0.000004570436
       3        0.000003873460    -0.000005859496    -0.000000876331
       4       -0.000002489740     0.000000681740     0.000000583317
       5        0.000000697960    -0.000000194507    -0.000000898065
       6        0.000004954917     0.000007972625    -0.000010332767
       7        0.000001446123    -0.000005580641     0.000038060893
       8        0.000004020577    -0.000001522525    -0.000001428254
       9        0.000000967046    -0.000003847841    -0.000002710786
      10        0.000023196753    -0.000000071715    -0.000036810449
      11        0.000000684137    -0.000001881954     0.000003557081
      12       -0.000001641329     0.000007761420    -0.000002712788
      13       -0.000078688435    -0.000011007526     0.000010194609
      14        0.000020969733     0.000018315960    -0.000003070408
      15        0.000010770881    -0.000003422359     0.000000013927
      16        0.000012299586    -0.000005225909     0.000002043445

  **** Optimization is complete! (in 5 steps) ****
    Final optimized geometry and variables:
    Molecular point group: c1

    Geometry (in Angstrom), charge = 0, multiplicity = 1:

    H           -2.707117805426     1.248635646061     0.646521437034
    C           -2.082537721953     0.987159173451     1.497636538000
    O           -0.828725577365     0.549709153241     1.092703876542
    H           -1.944286852517     1.866033502368     2.110319809609
    H           -2.600168631955     0.230256664017     2.084244871409
    C           -0.847884958073    -0.590346043900     0.297992885092
    C            0.549834541971    -0.911250577361    -0.168561782380
    H           -1.233562591237    -1.438362174143     0.863967271520
    H           -1.489789672930    -0.445148318915    -0.568119672423
    O            0.943724372611     0.013888239830    -1.129571598229
    H            1.221830886940    -0.893060286842     0.685786698922
    H            0.557342296694    -1.918749972654    -0.583197941185
    C            2.257010892315    -0.093865253437    -1.585860576200
    H            2.261319817944    -0.274202245735    -2.654941858097
    H            2.790107562361     0.828636040981    -1.387657098395
    H            2.790623751226    -0.905782424152    -1.102451478667

  Mulliken Charges: (a.u.)
   Center  Symbol    Alpha    Beta     Spin     Total
       1     H     0.47016  0.47016  0.00000  0.05968
       2     C     3.03200  3.03200  0.00000 -0.06400
       3     O     4.17036  4.17036  0.00000 -0.34072
       4     H     0.44646  0.44646  0.00000  0.10707
       5     H     0.47375  0.47375  0.00000  0.05250
       6     C     2.96359  2.96359  0.00000  0.07283
       7     C     2.95847  2.95847  0.00000  0.08306
       8     H     0.47622  0.47622  0.00000  0.04756
       9     H     0.47119  0.47119  0.00000  0.05763
      10     O     4.17526  4.17526  0.00000 -0.35052
      11     H     0.47050  0.47050  0.00000  0.05900
      12     H     0.47623  0.47623  0.00000  0.04753
      13     C     3.02696  3.02696  0.00000 -0.05393
      14     H     0.45922  0.45922  0.00000  0.08156
      15     H     0.45591  0.45591  0.00000  0.08817
      16     H     0.47370  0.47370  0.00000  0.05259

   Total alpha = 25.00000, Total beta = 25.00000, Total charge = -0.00000

*** Psi4 exiting successfully. Buy a developer a beer!
