  ==> Input File <==

--------------------------------------------------------------------------
set {
	reference rhf
	basis cc-pvtz
}

set_num_threads( 4 )
memory 2 gb

molecule MOL {
0 1

H	 0.238576	 1.916370	 0.528685
O	 0.057669	 1.301365	 -0.158528
C	 0.004145	 -0.005141	 0.363049
C	 1.199168	 -0.827145	 -0.096690
C	 -1.316386	 -0.602081	 -0.083515
H	 0.012026	 0.043363	 1.450619
H	 1.216685	 -0.896776	 -1.178167
H	 2.129940	 -0.372354	 0.228035
H	 1.160783	 -1.829622	 0.314294
H	 -1.357882	 -0.655920	 -1.165207
H	 -2.140147	 0.011735	 0.257253
H	 -1.440790	 -1.601175	 0.317669

	symmetry c1
}
set optking {
	frozen_dihedral = ("
		1 2 3 4
	")
}

ee = optimize('scf')
oeprop('DIPOLE', 'QUADRUPOLE', 'MULLIKEN_CHARGES')
f=open( 'psi4out.xyz', 'w' )
f.write( "12  " )
f.write( str(ee) + "\n" )
f.write( MOL.save_string_xyz() )
f.close()
--------------------------------------------------------------------------

    Molecular point group: c1
  Charge       = 0
  Multiplicity = 1
  Basis Set: CC-PVTZ
  Basis Set:
  @DF-RHF Final Energy:  -193.19387034086688
    Total Energy =                       -193.1938703408668516
    Molecular point group: c1
  Basis Set: CC-PVTZ
  Basis Set:
  Basis Set: CC-PVTZ
  Basis Set:
  @DF-RHF Final Energy:  -193.19416727151841
    Total Energy =                       -193.1941672715184950
  Basis Set: CC-PVTZ
  Basis Set:
  Basis Set: CC-PVTZ
  Basis Set:
  @DF-RHF Final Energy:  -193.19422855834028
    Total Energy =                       -193.1942285583401713
  Basis Set: CC-PVTZ
  Basis Set:
  Charge       = 0
  Multiplicity = 1
  Basis Set: CC-PVTZ
  Basis Set:

    Orbital Energies (a.u.)
    -----------------------

    Doubly Occupied:

       1A    -20.542801     2A    -11.274760     3A    -11.205232
       4A    -11.204720     5A     -1.362615     6A     -1.042731
       7A     -0.936130     8A     -0.800025     9A     -0.714745
      10A     -0.609744    11A     -0.599374    12A     -0.559138
      13A     -0.538341    14A     -0.525525    15A     -0.506629
      16A     -0.465199    17A     -0.432267

  @DF-RHF Final Energy:  -193.19422931122332

   => Energetics <=

    Nuclear Repulsion Energy =            135.4966971465605923
    One-Electron Energy =                -530.7418968386374445
    Two-Electron Energy =                 202.0509703808533573
    DFT Exchange-Correlation Energy =       0.0000000000000000
    Empirical Dispersion Energy =           0.0000000000000000
    PCM Polarization Energy =               0.0000000000000000
    EFP Energy =                            0.0000000000000000
    Total Energy =                       -193.1942293112235234
    Molecular point group: c1
  Basis Set: CC-PVTZ
  Basis Set:

  -Total Gradient:
     Atom            X                  Y                   Z
    ------   -----------------  -----------------  -----------------
       1       -0.000764055092     0.000125882606     0.000076186517
       2        0.000853372074    -0.000144004757    -0.000181122439
       3        0.000189416983     0.000320261779     0.000412792726
       4       -0.000274488325    -0.000185354213    -0.000341045545
       5       -0.000022732773    -0.000078809599     0.000035766676
       6       -0.000001663950    -0.000030759279    -0.000019343022
       7       -0.000015085203     0.000008329885     0.000018723741
       8       -0.000009767964     0.000008616301    -0.000008765204
       9        0.000022806628    -0.000043177961     0.000004016799
      10        0.000025435696     0.000015274183     0.000003505942
      11        0.000005233706     0.000006461965     0.000000468970
      12       -0.000008471778    -0.000002720909    -0.000001185160

  **** Optimization is complete! (in 4 steps) ****
    Final optimized geometry and variables:
    Molecular point group: c1

    Geometry (in Angstrom), charge = 0, multiplicity = 1:

    H            0.279922056791     1.921773594236     0.500416501373
    O            0.094874891473     1.298668528761    -0.175357372424
    C            0.002522748639    -0.005576512517     0.359404582175
    C            1.199098250404    -0.824701741688    -0.097340743750
    C           -1.315727623992    -0.615015233186    -0.086451280461
    H            0.009768561572     0.049180984892     1.444961029003
    H            1.221860728627    -0.878175481703    -1.179568976547
    H            2.123374767892    -0.368016618189     0.236053068902
    H            1.154282609901    -1.834058045264     0.296869166029
    H           -1.361995988426    -0.649739559869    -1.168836521943
    H           -2.147805043635    -0.018987061005     0.267165383756
    H           -1.426493034476    -1.623927833033     0.295000461132

  Mulliken Charges: (a.u.)
   Center  Symbol    Alpha    Beta     Spin     Total
       1     H     0.39052  0.39052  0.00000  0.21896
       2     O     4.21173  4.21173  0.00000 -0.42347
       3     C     2.92604  2.92604  0.00000  0.14793
       4     C     3.13693  3.13693  0.00000 -0.27386
       5     C     3.13709  3.13709  0.00000 -0.27418
       6     H     0.46769  0.46769  0.00000  0.06461
       7     H     0.45253  0.45253  0.00000  0.09494
       8     H     0.45403  0.45403  0.00000  0.09194
       9     H     0.45956  0.45956  0.00000  0.08089
      10     H     0.45237  0.45237  0.00000  0.09526
      11     H     0.45177  0.45177  0.00000  0.09647
      12     H     0.45974  0.45974  0.00000  0.08051

   Total alpha = 17.00000, Total beta = 17.00000, Total charge =  0.00000
