                              Psi4 1.0.54 Driver

  ==> Input File <==

--------------------------------------------------------------------------
set {
	reference rhf
	basis cc-pvtz
}

set_num_threads( 4 )
memory 2 gb

molecule MOL {
0 1

H	 -2.123894	 -0.667238	 -0.609809
O	 -2.041679	 -0.058866	 0.103463
C	 -0.959304	 0.780994	 -0.094939
C	 0.354905	 0.037902	 -0.006215
H	 -0.985899	 1.279578	 -1.057596
H	 -0.969809	 1.529522	 0.682889
F	 0.237782	 -1.042472	 0.745360
F	 0.742632	 -0.350116	 -1.203172
F	 1.312604	 0.771315	 0.508459

	symmetry c1
}
set optking {
	frozen_dihedral = ("
		7 4 3 5
	")
}

ee,wfn = optimize('scf', return_wfn=True)
oeprop( wfn, 'DIPOLE', 'QUADRUPOLE', 'MULLIKEN_CHARGES')
f=open( 'psi4out.xyz', 'w' )
f.write( "9  " )
f.write( str(ee) + "\n" )
f.write( MOL.save_string_xyz() )
f.close()
--------------------------------------------------------------------------

    Molecular point group: c1
  Charge       = 0
  Multiplicity = 1
  Basis Set: CC-PVTZ
  Basis Set:
  @DF-RHF Final Energy:  -450.84169950356619
    Total Energy =                       -450.8416995035661898
    Molecular point group: c1
  Basis Set: CC-PVTZ
  Basis Set:
  Basis Set: CC-PVTZ
  Basis Set:
  @DF-RHF Final Energy:  -450.84233071478042
    Total Energy =                       -450.8423307147806440
  Basis Set: CC-PVTZ
  Basis Set:
  Basis Set: CC-PVTZ
  Basis Set:
  @DF-RHF Final Energy:  -450.84259403513317
    Total Energy =                       -450.8425940351332315
  Basis Set: CC-PVTZ
  Basis Set:
  Basis Set: CC-PVTZ
  Basis Set:
  @DF-RHF Final Energy:  -450.84261414193810
    Total Energy =                       -450.8426141419380428
  Basis Set: CC-PVTZ
  Basis Set:
  Basis Set: CC-PVTZ
  Basis Set:
  @DF-RHF Final Energy:  -450.84261711728311
    Total Energy =                       -450.8426171172831118
  Basis Set: CC-PVTZ
  Basis Set:
  Charge       = 0
  Multiplicity = 1
  Basis Set: CC-PVTZ
  Basis Set:

    Orbital Energies (a.u.)
    -----------------------

    Doubly Occupied:

       1A    -26.339191     2A    -26.335684     3A    -26.334620
       4A    -20.582634     5A    -11.493623     6A    -11.310341
       7A     -1.746713     8A     -1.644921     9A     -1.639310
      10A     -1.405514    11A     -1.046767    12A     -0.929144
      13A     -0.835694    14A     -0.834834    15A     -0.809338
      16A     -0.733527    17A     -0.719314    18A     -0.701840
      19A     -0.670790    20A     -0.663442    21A     -0.647208
      22A     -0.631965    23A     -0.614598    24A     -0.532357
      25A     -0.484158

  @DF-RHF Final Energy:  -450.84261749029247

   => Energetics <=

    Nuclear Repulsion Energy =            276.9710722949066621
    One-Electron Energy =               -1176.2523218934209126
    Two-Electron Energy =                 448.4386321082216682
    DFT Exchange-Correlation Energy =       0.0000000000000000
    Empirical Dispersion Energy =           0.0000000000000000
    PCM Polarization Energy =               0.0000000000000000
    EFP Energy =                            0.0000000000000000
    Total Energy =                       -450.8426174902925823
    Molecular point group: c1
  Basis Set: CC-PVTZ
  Basis Set:

  -Total Gradient:
     Atom            X                  Y                   Z
    ------   -----------------  -----------------  -----------------
       1        0.000012800990    -0.000016446492    -0.000005142196
       2       -0.000020490329     0.000015367037     0.000017470334
       3        0.002689289397     0.004465110628     0.001323439496
       4        0.001242157845     0.002431530829     0.004704630735
       5       -0.002580432340    -0.004426604636    -0.002149213523
       6       -0.000012476637     0.000015265388     0.000010760290
       7       -0.001354287388    -0.002473760093    -0.003881321870
       8       -0.000015708198    -0.000057750335    -0.000076391998
       9        0.000039146658     0.000047287672     0.000055768731

  **** Optimization is complete! (in 6 steps) ****
    Final optimized geometry and variables:
    Molecular point group: c1

    Geometry (in Angstrom), charge = 0, multiplicity = 1:

    H           -2.188879252077    -0.550553380991    -0.638007155815
    O           -2.062397404237     0.019759163612     0.099486489609
    C           -0.941546404332     0.816814812197    -0.075790067190
    C            0.359638913905     0.023893951649     0.001230659540
    H           -0.959126199470     1.301967741365    -1.044131068392
    H           -0.938677391840     1.555924540000     0.709105123792
    F            0.257814258187    -1.043808456952     0.752344199076
    F            0.723730621131    -0.395761150100    -1.201529117368
    F            1.339146024300     0.769516179285     0.464137864442

  Mulliken Charges: (a.u.)
   Center  Symbol    Alpha    Beta     Spin     Total
       1     H     0.38922  0.38922  0.00000  0.22157
       2     O     4.18755  4.18755  0.00000 -0.37509
       3     C     2.99817  2.99817  0.00000  0.00366
       4     C     2.68506  2.68506  0.00000  0.62987
       5     H     0.46039  0.46039  0.00000  0.07921
       6     H     0.44688  0.44688  0.00000  0.10624
       7     F     4.60470  4.60470  0.00000 -0.20940
       8     F     4.61744  4.61744  0.00000 -0.23487
       9     F     4.61059  4.61059  0.00000 -0.22118

   Total alpha = 25.00000, Total beta = 25.00000, Total charge = -0.00000

*** Psi4 exiting successfully. Buy a developer a beer!
