                              Psi4 1.0.54 Driver

  ==> Input File <==

--------------------------------------------------------------------------
set {
	reference rhf
	basis cc-pvtz
}

set_num_threads( 4 )
memory 2 gb

molecule MOL {
0 1

O	 1.216069	 1.304886	 0.000821
C	 1.121787	 0.124983	 0.000110
C	 -0.170912	 -0.649867	 -0.000147
O	 2.167739	 -0.685178	 -0.000678
C	 -1.413045	 0.229353	 0.001137
H	 -0.152877	 -1.303435	 -0.866175
H	 -0.152278	 -1.305116	 0.864586
C	 -2.335775	 -0.066497	 -1.177571
H	 -1.114243	 1.271397	 -0.018911
H	 -1.950271	 0.088986	 0.932389
C	 -3.582883	 0.810725	 -1.187304
H	 -1.790969	 0.072628	 -2.107663
H	 -2.631665	 -1.111984	 -1.152239
H	 -3.320748	 1.861578	 -1.247131
H	 -4.218577	 0.579096	 -2.034014
H	 -4.167613	 0.668300	 -0.284870
C	 3.449556	 -0.089977	 -0.000570
H	 3.585694	 0.522473	 -0.879546
H	 4.155805	 -0.904274	 -0.001389
H	 3.586173	 0.521118	 0.879272

	symmetry c1
}
set optking {
	frozen_dihedral = ("
		9 5 3 6
	")
}

ee,wfn = optimize('scf', return_wfn=True)
oeprop( wfn, 'DIPOLE', 'QUADRUPOLE', 'MULLIKEN_CHARGES')
f=open( 'psi4out.xyz', 'w' )
f.write( "20  " )
f.write( str(ee) + "\n" )
f.write( MOL.save_string_xyz() )
f.close()
--------------------------------------------------------------------------

    Molecular point group: c1
  Charge       = 0
  Multiplicity = 1
  Basis Set: CC-PVTZ
  Basis Set:
  @DF-RHF Final Energy:  -384.07842359963246
    Total Energy =                       -384.0784235996326288
    Molecular point group: c1
  Basis Set: CC-PVTZ
  Basis Set:
  Basis Set: CC-PVTZ
  Basis Set:
  @DF-RHF Final Energy:  -384.07870310729305
    Total Energy =                       -384.0787031072928812
  Basis Set: CC-PVTZ
  Basis Set:
  Basis Set: CC-PVTZ
  Basis Set:
  @DF-RHF Final Energy:  -384.07865952684483
    Total Energy =                       -384.0786595268443762
  Basis Set: CC-PVTZ
  Basis Set:
  Basis Set: CC-PVTZ
  Basis Set:
  @DF-RHF Final Energy:  -384.07879656142865
    Total Energy =                       -384.0787965614290442
  Basis Set: CC-PVTZ
  Basis Set:
  Basis Set: CC-PVTZ
  Basis Set:
  @DF-RHF Final Energy:  -384.07880022963184
    Total Energy =                       -384.0788002296313834
  Basis Set: CC-PVTZ
  Basis Set:
  Basis Set: CC-PVTZ
  Basis Set:
  @DF-RHF Final Energy:  -384.07880231129974
    Total Energy =                       -384.0788023112997962
  Basis Set: CC-PVTZ
  Basis Set:
  Basis Set: CC-PVTZ
  Basis Set:
  @DF-RHF Final Energy:  -384.07880378449249
    Total Energy =                       -384.0788037844928340
  Basis Set: CC-PVTZ
  Basis Set:
  Charge       = 0
  Multiplicity = 1
  Basis Set: CC-PVTZ
  Basis Set:

    Orbital Energies (a.u.)
    -----------------------

    Doubly Occupied:

       1A    -20.596714     2A    -20.535168     3A    -11.365714
       4A    -11.278820     5A    -11.233907     6A    -11.217235
       7A    -11.215591     8A    -11.207445     9A     -1.473019
      10A     -1.366537    11A     -1.087119    12A     -1.025079
      13A     -0.968978    14A     -0.886560    15A     -0.805305
      16A     -0.769160    17A     -0.703512    18A     -0.684374
      19A     -0.676670    20A     -0.636846    21A     -0.603316
      22A     -0.592468    23A     -0.580152    24A     -0.547590
      25A     -0.530609    26A     -0.519682    27A     -0.508381
      28A     -0.478426    29A     -0.469621    30A     -0.464308
      31A     -0.461203    32A     -0.442885

  @DF-RHF Final Energy:  -384.07880426244611

   => Energetics <=

    Nuclear Repulsion Energy =            383.1186460367206905
    One-Electron Energy =               -1282.5301071861379114
    Two-Electron Energy =                 515.3326568869708808
    DFT Exchange-Correlation Energy =       0.0000000000000000
    Empirical Dispersion Energy =           0.0000000000000000
    PCM Polarization Energy =               0.0000000000000000
    EFP Energy =                            0.0000000000000000
    Total Energy =                       -384.0788042624462832
    Molecular point group: c1
  Basis Set: CC-PVTZ
  Basis Set:

  -Total Gradient:
     Atom            X                  Y                   Z
    ------   -----------------  -----------------  -----------------
       1        0.000057592678     0.000000215282     0.000005599304
       2       -0.000109127966     0.000057755798    -0.000015961831
       3        0.000129907596     0.000239195257    -0.000112360071
       4        0.000077971314    -0.000030366340     0.000007500059
       5       -0.000021911425    -0.000048157658    -0.000291411681
       6       -0.000141802127    -0.000206411309     0.000149272048
       7        0.000003677146     0.000001754935     0.000002534149
       8        0.000002592640     0.000004544113    -0.000022006068
       9        0.000000675749    -0.000008273575     0.000281692354
      10       -0.000001186990    -0.000003819064    -0.000001229100
      11        0.000002224630    -0.000007046399     0.000005984257
      12       -0.000002137808     0.000002262193    -0.000008778066
      13        0.000001006278    -0.000002825726    -0.000003645166
      14        0.000004542156     0.000002064642    -0.000002837643
      15       -0.000002439156    -0.000001068047     0.000002393855
      16       -0.000005357155    -0.000000477609     0.000005534568
      17       -0.000037318986    -0.000027303023    -0.000003730062
      18        0.000009889940     0.000016179642    -0.000017266821
      19        0.000024181855    -0.000006427316     0.000001339667
      20        0.000007019633     0.000018204203     0.000017376247

  **** Optimization is complete! (in 8 steps) ****
    Final optimized geometry and variables:
    Molecular point group: c1

    Geometry (in Angstrom), charge = 0, multiplicity = 1:

    O            1.154081539036     1.182961138767     0.233402676965
    C            1.041876889935     0.006126607119     0.290461305921
    C           -0.255805943424    -0.765842209300     0.285738018332
    O            2.077341204469    -0.814632846224     0.359790945198
    C           -1.522835053419     0.099282172999     0.275481533208
    H           -0.215080728430    -1.417926989537    -0.580282311391
    H           -0.225836293966    -1.428434149535     1.142086754846
    C           -2.443425411886    -0.194630089514    -0.907077898599
    H           -1.239390334591     1.142526854231     0.260830953783
    H           -2.071180909776    -0.057509846571     1.198229995424
    C           -3.706121358835     0.658959585165    -0.900172102494
    H           -1.898648412480    -0.025866018423    -1.832068374007
    H           -2.718499754491    -1.246210110842    -0.901487579288
    H           -3.462697485290     1.715171220558    -0.939220002602
    H           -4.337515118205     0.432233802175    -1.751444122025
    H           -4.288977440356     0.487956913872    -0.001123272078
    C            3.366420189241    -0.235430007317     0.359924491960
    H            3.532417260197     0.326260039692    -0.547414945184
    H            4.061708094783    -1.056864507097     0.421322566303
    H            3.489412609442     0.421226204430     1.208395906298

  Mulliken Charges: (a.u.)
   Center  Symbol    Alpha    Beta     Spin     Total
       1     O     4.19615  4.19615  0.00000 -0.39230
       2     C     2.80013  2.80013  0.00000  0.39974
       3     C     3.11147  3.11147  0.00000 -0.22295
       4     O     4.14725  4.14725  0.00000 -0.29449
       5     C     3.09467  3.09467  0.00000 -0.18934
       6     H     0.43893  0.43893  0.00000  0.12213
       7     H     0.43319  0.43319  0.00000  0.13362
       8     C     3.08609  3.08609  0.00000 -0.17219
       9     H     0.43565  0.43565  0.00000  0.12870
      10     H     0.45141  0.45141  0.00000  0.09717
      11     C     3.15025  3.15025  0.00000 -0.30051
      12     H     0.45316  0.45316  0.00000  0.09367
      13     H     0.45467  0.45467  0.00000  0.09067
      14     H     0.45232  0.45232  0.00000  0.09536
      15     H     0.44851  0.44851  0.00000  0.10297
      16     H     0.45550  0.45550  0.00000  0.08900
      17     C     3.03636  3.03636  0.00000 -0.07273
      18     H     0.45449  0.45449  0.00000  0.09101
      19     H     0.44553  0.44553  0.00000  0.10894
      20     H     0.45425  0.45425  0.00000  0.09150

   Total alpha = 32.00000, Total beta = 32.00000, Total charge = -0.00000

*** Psi4 exiting successfully. Buy a developer a beer!
