                              Psi4 1.0.54 Driver

  ==> Input File <==

--------------------------------------------------------------------------
set {
	reference rhf
	basis cc-pvtz
}

set_num_threads( 4 )
memory 2 gb

molecule MOL {
0 1

H	 1.242809	 -4.218405	 -3.715074
C	 1.366664	 -3.468864	 -2.958131
C	 0.491072	 -3.401186	 -1.883612
C	 2.395299	 -2.559064	 -3.035904
H	 -0.317744	 -4.102850	 -1.806043
C	 0.646073	 -2.442479	 -0.911564
H	 3.082783	 -2.595640	 -3.859747
C	 2.566360	 -1.584265	 -2.062809
H	 -0.024843	 -2.381582	 -0.077398
C	 1.688395	 -1.525389	 -0.996137
H	 3.376802	 -0.890979	 -2.152256
O	 1.760432	 -0.625184	 0.000000
C	 2.773565	 0.334879	 0.000000
H	 2.728295	 0.960928	 -0.884150
H	 3.706387	 -0.206610	 0.000000
H	 2.728295	 0.960928	 0.884150

	symmetry c1
}
set optking {
	frozen_dihedral = ("
		10 12 13 14
	")
}

ee,wfn = optimize('scf', return_wfn=True)
oeprop( wfn, 'DIPOLE', 'QUADRUPOLE', 'MULLIKEN_CHARGES')
f=open( 'psi4out.xyz', 'w' )
f.write( "16  " )
f.write( str(ee) + "\n" )
f.write( MOL.save_string_xyz() )
f.close()
--------------------------------------------------------------------------

    Molecular point group: c1
  Charge       = 0
  Multiplicity = 1
  Basis Set: CC-PVTZ
  Basis Set:
  @DF-RHF Final Energy:  -344.70175879805714
    Total Energy =                       -344.7017587980572557
    Molecular point group: c1
  Basis Set: CC-PVTZ
  Basis Set:
  Basis Set: CC-PVTZ
  Basis Set:
  @DF-RHF Final Energy:  -344.70326637681313
    Total Energy =                       -344.7032663768132466
  Basis Set: CC-PVTZ
  Basis Set:
  Basis Set: CC-PVTZ
  Basis Set:
  @DF-RHF Final Energy:  -344.70374830575105
    Total Energy =                       -344.7037483057512759
  Basis Set: CC-PVTZ
  Basis Set:
  Basis Set: CC-PVTZ
  Basis Set:
  @DF-RHF Final Energy:  -344.70375380257502
    Total Energy =                       -344.7037538025750223
  Basis Set: CC-PVTZ
  Basis Set:
  Charge       = 0
  Multiplicity = 1
  Basis Set: CC-PVTZ
  Basis Set:

    Orbital Energies (a.u.)
    -----------------------

    Doubly Occupied:

       1A    -20.580685     2A    -11.293795     3A    -11.278547
       4A    -11.231226     5A    -11.229986     6A    -11.221803
       7A    -11.217966     8A    -11.216840     9A     -1.420189
      10A     -1.150943    11A     -1.025830    12A     -1.016633
      13A     -0.944456    14A     -0.834519    15A     -0.808300
      16A     -0.726439    17A     -0.667852    18A     -0.666363
      19A     -0.661218    20A     -0.619495    21A     -0.590126
      22A     -0.579395    23A     -0.528279    24A     -0.523833
      25A     -0.512487    26A     -0.478740    27A     -0.467918
      28A     -0.339780    29A     -0.309951

  @DF-RHF Final Energy:  -344.70375414229750

   => Energetics <=

    Nuclear Repulsion Energy =            348.9178387205284935
    One-Electron Energy =               -1158.9559954574719995
    Two-Electron Energy =                 465.3344025946458373
    DFT Exchange-Correlation Energy =       0.0000000000000000
    Empirical Dispersion Energy =           0.0000000000000000
    PCM Polarization Energy =               0.0000000000000000
    EFP Energy =                            0.0000000000000000
    Total Energy =                       -344.7037541422976687
    Molecular point group: c1
  Basis Set: CC-PVTZ
  Basis Set:

  -Total Gradient:
     Atom            X                  Y                   Z
    ------   -----------------  -----------------  -----------------
       1       -0.000001790554     0.000002893652    -0.000001795268
       2        0.000038280231    -0.000014331737     0.000015310510
       3       -0.000031008189     0.000037199113    -0.000013346620
       4       -0.000022196252    -0.000003098938    -0.000027866878
       5        0.000007460277    -0.000003849132     0.000006180368
       6       -0.000039663299     0.000032543521    -0.000027165493
       7       -0.000001907552    -0.000000309894    -0.000000164657
       8       -0.000024633945     0.000040870156    -0.000011388088
       9        0.000004754606    -0.000004314445     0.000004700857
      10        0.000038795726    -0.000038702191     0.000007182566
      11       -0.000009246663    -0.000009884856    -0.000005652759
      12        0.000159757153    -0.000090079949     0.000064081849
      13       -0.000209657502     0.000224281909     0.000153570888
      14        0.000130306427    -0.000129534490    -0.000044244734
      15       -0.000065737199     0.000027249721    -0.000010498860
      16        0.000026486739    -0.000070932440    -0.000108903681

  **** Optimization is complete! (in 5 steps) ****
    Final optimized geometry and variables:
    Molecular point group: c1

    Geometry (in Angstrom), charge = 0, multiplicity = 1:

    H           -0.346293690316    -2.413430753982    -2.288023573387
    C           -0.269186999255    -1.656507461272    -1.532205058678
    C           -1.161556080636    -1.628362236692    -0.469715576452
    C            0.714708242703    -0.697895485614    -1.599590079206
    H           -1.936194147455    -2.368415839110    -0.400455728493
    C           -1.066635198650    -0.660402003943     0.500740215800
    H            1.414302426627    -0.703360743550    -2.413979270993
    C            0.825002589731     0.286953918253    -0.627713921747
    H           -1.750961586758    -0.629668754895     1.325626376136
    C           -0.069043304125     0.306125526189     0.426879490173
    H            1.602297596480     1.018165548160    -0.708642414092
    O           -0.054826629013     1.211534140907     1.420926120908
    C            0.897896435101     2.231604939523     1.421670410575
    H            0.817485224834     2.851789053645     0.536031221063
    H            1.904778229500     1.834944937089     1.489039993743
    H            0.698494318512     2.834413753971     2.293332977195

  Mulliken Charges: (a.u.)
   Center  Symbol    Alpha    Beta     Spin     Total
       1     H     0.42442  0.42442  0.00000  0.15116
       2     C     3.10099  3.10099  0.00000 -0.20199
       3     C     3.05794  3.05794  0.00000 -0.11587
       4     C     3.06155  3.06155  0.00000 -0.12309
       5     H     0.42300  0.42300  0.00000  0.15400
       6     C     3.11172  3.11172  0.00000 -0.22345
       7     H     0.42366  0.42366  0.00000  0.15269
       8     C     3.14418  3.14418  0.00000 -0.28836
       9     H     0.42100  0.42100  0.00000  0.15799
      10     C     2.84992  2.84992  0.00000  0.30016
      11     H     0.42254  0.42254  0.00000  0.15492
      12     O     4.15067  4.15067  0.00000 -0.30133
      13     C     3.04491  3.04491  0.00000 -0.08981
      14     H     0.46251  0.46251  0.00000  0.07498
      15     H     0.46230  0.46230  0.00000  0.07540
      16     H     0.43869  0.43869  0.00000  0.12261

   Total alpha = 29.00000, Total beta = 29.00000, Total charge =  0.00000

*** Psi4 exiting successfully. Buy a developer a beer!
