  ==> Input File <==

--------------------------------------------------------------------------
set {
	reference rhf
	basis 6-31G*
}

set_num_threads( 1 )
memory 2 gb

molecule MOL {
0 1

O	 -2.821601	 1.309235	 -0.001213
C	 -2.668563	 0.129746	 -0.000350
C	 -3.801572	 -0.864014	 -0.000442
O	 -1.481751	 -0.454642	 0.000584
H	 -4.417280	 -0.689587	 -0.874708
H	 -3.443784	 -1.883046	 -0.000565
H	 -4.417179	 -0.689832	 0.873954
C	 -0.334255	 0.388708	 0.000906
C	 0.891947	 -0.504646	 0.000751
H	 -0.365390	 1.025305	 -0.873475
H	 -0.365484	 1.024911	 0.875569
C	 2.191998	 0.301789	 0.000897
H	 0.855148	 -1.151283	 -0.871571
H	 0.855132	 -1.151660	 0.872805
C	 3.441114	 -0.581407	 0.000108
H	 2.215074	 0.954890	 -0.869742
H	 2.215465	 0.953923	 0.872248
C	 4.010666	 -0.808048	 1.399791
H	 4.201961	 -0.126995	 -0.630524
H	 3.202235	 -1.541082	 -0.452695
H	 4.290907	 0.132127	 1.866214
H	 4.894717	 -1.437003	 1.366571
H	 3.283817	 -1.292879	 2.045266

	symmetry c1
}
set optking {
	frozen_dihedral = ("
		13 9 8 10,
		2 4 8 10,
		16 12 9 13,
		1 2 4 8
	")
}

ee = energy('scf')
oeprop('DIPOLE', 'QUADRUPOLE', 'MULLIKEN_CHARGES')
f=open( 'psi4out.xyz', 'w' )
f.write( "23  " )
f.write( str(ee) + "\n" )
f.write( MOL.save_string_xyz() )
f.close()
--------------------------------------------------------------------------

    Molecular point group: c1

    Geometry (in Angstrom), charge = 0, multiplicity = 1:

       Center              X                  Y                   Z               Mass
    ------------   -----------------  -----------------  -----------------  -----------------
           O         -2.737445167363     1.428401464952    -0.162951497709    15.994914619560
           C         -2.584407167363     0.248912464952    -0.162088497709    12.000000000000
           C         -3.717416167363    -0.744847535048    -0.162180497709    12.000000000000
           O         -1.397595167363    -0.335475535048    -0.161154497709    15.994914619560
           H         -4.333124167363    -0.570420535048    -1.036446497709     1.007825032070
           H         -3.359628167363    -1.763879535048    -0.162303497709     1.007825032070
           H         -4.333023167363    -0.570665535048     0.712215502291     1.007825032070
           C         -0.250099167363     0.507874464952    -0.160832497709    12.000000000000
           C          0.976102832637    -0.385479535048    -0.160987497709    12.000000000000
           H         -0.281234167363     1.144471464952    -1.035213497709     1.007825032070
           H         -0.281328167363     1.144077464952     0.713830502291     1.007825032070
           C          2.276153832637     0.420955464952    -0.160841497709    12.000000000000
           H          0.939303832637    -1.032116535048    -1.033309497709     1.007825032070
           H          0.939287832637    -1.032493535048     0.711066502291     1.007825032070
           C          3.525269832637    -0.462240535048    -0.161630497709    12.000000000000
           H          2.299229832637     1.074056464952    -1.031480497709     1.007825032070
           H          2.299620832637     1.073089464952     0.710509502291     1.007825032070
           C          4.094821832637    -0.688881535048     1.238052502291    12.000000000000
           H          4.286116832637    -0.007828535048    -0.792262497709     1.007825032070
           H          3.286390832637    -1.421915535048    -0.614433497709     1.007825032070
           H          4.375062832637     0.251293464952     1.704475502291     1.007825032070
           H          4.978872832637    -1.317836535048     1.204832502291     1.007825032070
           H          3.367972832637    -1.173712535048     1.883527502291     1.007825032070

  Charge       = 0
  Multiplicity = 1
  Basis Set: 6-31G*
  Basis Set:

    Orbital Energies (a.u.)
    -----------------------

    Doubly Occupied:

       1A    -20.602952     2A    -20.540498     3A    -11.374061
       4A    -11.281240     5A    -11.232399     6A    -11.224490
       7A    -11.222826     8A    -11.220564     9A    -11.213182
      10A     -1.467932    11A     -1.360705    12A     -1.094841
      13A     -1.041759    14A     -1.002462    15A     -0.930655
      16A     -0.847892    17A     -0.798465    18A     -0.773349
      19A     -0.691201    20A     -0.685385    21A     -0.669447
      22A     -0.634094    23A     -0.617278    24A     -0.596938
      25A     -0.579207    26A     -0.571553    27A     -0.547279
      28A     -0.532872    29A     -0.528639    30A     -0.505822
      31A     -0.499346    32A     -0.476243    33A     -0.465114
      34A     -0.462936    35A     -0.451230    36A     -0.435215

  @DF-RHF Final Energy:  -422.97535670548723

   => Energetics <=

    Nuclear Repulsion Energy =            452.7543996332616416
    One-Electron Energy =               -1473.0993345859701549
    Two-Electron Energy =                 597.3695782472207156
    DFT Exchange-Correlation Energy =       0.0000000000000000
    Empirical Dispersion Energy =           0.0000000000000000
    PCM Polarization Energy =               0.0000000000000000
    EFP Energy =                            0.0000000000000000
    Total Energy =                       -422.9753567054877976

  Mulliken Charges: (a.u.)
   Center  Symbol    Alpha    Beta     Spin     Total
       1     O     4.28391  4.28391  0.00000 -0.56782
       2     C     2.61534  2.61534  0.00000  0.76931
       3     C     3.28774  3.28774  0.00000 -0.57548
       4     O     4.31268  4.31268  0.00000 -0.62536
       5     H     0.39750  0.39750  0.00000  0.20501
       6     H     0.39990  0.39990  0.00000  0.20020
       7     H     0.39750  0.39750  0.00000  0.20499
       8     C     2.99592  2.99592  0.00000  0.00815
       9     C     3.16636  3.16636  0.00000 -0.33272
      10     H     0.41058  0.41058  0.00000  0.17884
      11     H     0.41067  0.41067  0.00000  0.17865
      12     C     3.16318  3.16318  0.00000 -0.32637
      13     H     0.41372  0.41372  0.00000  0.17256
      14     H     0.41401  0.41401  0.00000  0.17199
      15     C     3.15440  3.15440  0.00000 -0.30879
      16     H     0.41834  0.41834  0.00000  0.16332
      17     H     0.41910  0.41910  0.00000  0.16179
      18     C     3.24066  3.24066  0.00000 -0.48132
      19     H     0.41841  0.41841  0.00000  0.16317
      20     H     0.41986  0.41986  0.00000  0.16028
      21     H     0.42037  0.42037  0.00000  0.15926
      22     H     0.41850  0.41850  0.00000  0.16300
      23     H     0.42133  0.42133  0.00000  0.15734

   Total alpha = 36.00000, Total beta = 36.00000, Total charge = -0.00000
