                              Psi4 1.0.54 Driver

  ==> Input File <==

--------------------------------------------------------------------------
set {
	reference rhf
	basis cc-pvtz
}

set_num_threads( 4 )
memory 2 gb

molecule MOL {
0 1

H	 -3.941973	 0.934228	 -0.390224
C	 -3.240162	 0.342701	 0.161016
C	 -2.105997	 -0.000418	 -0.398703
H	 -3.485368	 0.047206	 1.162193
O	 -1.687050	 0.535869	 -1.567764
H	 -1.440687	 -0.717740	 0.046200
C	 -0.531345	 0.043943	 -2.146968
C	 -0.817878	 -1.097748	 -3.100631
H	 0.182119	 -0.307743	 -1.411401
H	 -0.078198	 0.839263	 -2.719299
F	 0.309377	 -1.505180	 -3.648695
F	 -1.357940	 -2.127845	 -2.485211
F	 -1.629212	 -0.741259	 -4.066607

	symmetry c1
}
set optking {
	frozen_dihedral = ("
		6 3 2 1
	")
}

ee,wfn = optimize('scf', return_wfn=True)
oeprop( wfn, 'DIPOLE', 'QUADRUPOLE', 'MULLIKEN_CHARGES')
f=open( 'psi4out.xyz', 'w' )
f.write( "13  " )
f.write( str(ee) + "\n" )
f.write( MOL.save_string_xyz() )
f.close()
--------------------------------------------------------------------------

    Molecular point group: c1
  Charge       = 0
  Multiplicity = 1
  Basis Set: CC-PVTZ
  Basis Set:
  @DF-RHF Final Energy:  -527.73988299425696
    Total Energy =                       -527.7398829942567318
    Molecular point group: c1
  Basis Set: CC-PVTZ
  Basis Set:
  Basis Set: CC-PVTZ
  Basis Set:
  @DF-RHF Final Energy:  -527.74080472176092
    Total Energy =                       -527.7408047217605827
  Basis Set: CC-PVTZ
  Basis Set:
  Basis Set: CC-PVTZ
  Basis Set:
  @DF-RHF Final Energy:  -527.74127148033381
    Total Energy =                       -527.7412714803333529
  Basis Set: CC-PVTZ
  Basis Set:
  Basis Set: CC-PVTZ
  Basis Set:
  @DF-RHF Final Energy:  -527.74128569520985
    Total Energy =                       -527.7412856952096263
  Basis Set: CC-PVTZ
  Basis Set:
  Basis Set: CC-PVTZ
  Basis Set:
  @DF-RHF Final Energy:  -527.74128772040854
    Total Energy =                       -527.7412877204083088
  Basis Set: CC-PVTZ
  Basis Set:
  Charge       = 0
  Multiplicity = 1
  Basis Set: CC-PVTZ
  Basis Set:

    Orbital Energies (a.u.)
    -----------------------

    Doubly Occupied:

       1A    -26.342060     2A    -26.340901     3A    -26.338290
       4A    -20.604143     5A    -11.498041     6A    -11.320130
       7A    -11.298840     8A    -11.213879     9A     -1.750731
      10A     -1.647241    11A     -1.645643    12A     -1.444719
      13A     -1.088236    14A     -1.020828    15A     -0.932471
      16A     -0.844182    17A     -0.839883    18A     -0.827370
      19A     -0.798110    20A     -0.729173    21A     -0.719437
      22A     -0.704036    23A     -0.681884    24A     -0.668369
      25A     -0.661802    26A     -0.651210    27A     -0.640892
      28A     -0.587924    29A     -0.566654    30A     -0.529375
      31A     -0.517758    32A     -0.356440

  @DF-RHF Final Energy:  -527.74128864046452

   => Energetics <=

    Nuclear Repulsion Energy =            413.7615722543050083
    One-Electron Energy =               -1551.3844139557725157
    Two-Electron Energy =                 609.8815530610027054
    DFT Exchange-Correlation Energy =       0.0000000000000000
    Empirical Dispersion Energy =           0.0000000000000000
    PCM Polarization Energy =               0.0000000000000000
    EFP Energy =                            0.0000000000000000
    Total Energy =                       -527.7412886404647452
    Molecular point group: c1
  Basis Set: CC-PVTZ
  Basis Set:

  -Total Gradient:
     Atom            X                  Y                   Z
    ------   -----------------  -----------------  -----------------
       1       -0.002179305426    -0.004593833135    -0.002301507318
       2        0.002048534013     0.004790415177     0.001885752515
       3        0.002427402743     0.003685658855     0.003504039539
       4        0.000060840761     0.000002896353     0.000022289311
       5        0.000132739668     0.000082400327    -0.000000891920
       6       -0.002428146051    -0.003940473618    -0.003101393372
       7       -0.000077809127    -0.000026857716    -0.000016121230
       8        0.000002515221    -0.000011751704    -0.000000011772
       9        0.000011658333    -0.000000805562     0.000008074883
      10       -0.000010771826    -0.000007635472    -0.000000750409
      11        0.000025672276    -0.000005558665    -0.000001304747
      12       -0.000001156929     0.000030216400    -0.000009058144
      13       -0.000012173650    -0.000004671243     0.000010882656

  **** Optimization is complete! (in 6 steps) ****
    Final optimized geometry and variables:
    Molecular point group: c1

    Geometry (in Angstrom), charge = 0, multiplicity = 1:

    H           -2.687672297793     1.552094189525     1.885603935563
    C           -1.976981526476     0.937170426661     2.401675303849
    C           -0.813133583989     0.640402799751     1.876970088584
    H           -2.265340367646     0.483427428206     3.327751559862
    O           -0.384535842749     1.189129072922     0.717036625789
    H           -0.160042534646    -0.096204788789     2.308343852724
    C            0.784731167777     0.714540101222     0.151154150708
    C            0.527204778992    -0.431502365643    -0.805596456257
    H            1.494619075602     0.373710483622     0.895378377111
    H            1.232275663401     1.516669746025    -0.416006694229
    F            1.666693471418    -0.821735456476    -1.340438420059
    F           -0.004099761459    -1.469804672462    -0.195929103486
    F           -0.278603704563    -0.087976379097    -1.780914227799

  Mulliken Charges: (a.u.)
   Center  Symbol    Alpha    Beta     Spin     Total
       1     H     0.42443  0.42443  0.00000  0.15114
       2     C     3.19689  3.19689  0.00000 -0.39379
       3     C     2.95936  2.95936  0.00000  0.08127
       4     H     0.42574  0.42574  0.00000  0.14852
       5     O     4.14444  4.14444  0.00000 -0.28889
       6     H     0.43402  0.43402  0.00000  0.13197
       7     C     3.01923  3.01923  0.00000 -0.03846
       8     C     2.67525  2.67525  0.00000  0.64950
       9     H     0.45536  0.45536  0.00000  0.08928
      10     H     0.43526  0.43526  0.00000  0.12948
      11     F     4.61250  4.61250  0.00000 -0.22500
      12     F     4.61069  4.61069  0.00000 -0.22138
      13     F     4.60683  4.60683  0.00000 -0.21366

   Total alpha = 32.00000, Total beta = 32.00000, Total charge =  0.00000

*** Psi4 exiting successfully. Buy a developer a beer!
