  ==> Input File <==

--------------------------------------------------------------------------
set {
	reference rhf
	basis cc-pvtz
}

set_num_threads( 4 )
memory 2 gb

molecule MOL {
0 1

H	 2.614283	 2.028610	 0.296620
O	 3.358864	 1.662087	 -0.142800
C	 3.565468	 0.338079	 0.273842
C	 2.533667	 -0.637565	 -0.272227
H	 4.548038	 0.064914	 -0.086598
H	 3.593945	 0.282242	 1.360360
C	 1.114816	 -0.402372	 0.240993
H	 2.544552	 -0.580764	 -1.356576
H	 2.850574	 -1.642962	 -0.005497
C	 0.113298	 -1.420414	 -0.302504
H	 0.796373	 0.598427	 -0.031033
H	 1.113377	 -0.446476	 1.328807
C	 0.323461	 -2.856049	 0.182304
H	 -0.894373	 -1.100049	 -0.049141
H	 0.168369	 -1.413102	 -1.387576
C	 0.069418	 -3.079138	 1.672081
H	 -0.338716	 -3.506791	 -0.382128
H	 1.335376	 -3.172123	 -0.061173
C	 0.194988	 -4.542917	 2.086804
H	 -0.926724	 -2.720925	 1.922785
H	 0.762889	 -2.487560	 2.262112
C	 -0.054354	 -4.768685	 3.574335
H	 -0.505417	 -5.140543	 1.509869
H	 1.186866	 -4.904763	 1.829302
H	 -1.050919	 -4.446287	 3.857452
H	 0.039829	 -5.816916	 3.834041
H	 0.655098	 -4.213554	 4.179199

	symmetry c1
}
set optking {
	frozen_dihedral = ("
		14 10 7 4
	")
}

ee = optimize('scf')
oeprop('DIPOLE', 'QUADRUPOLE', 'MULLIKEN_CHARGES')
f=open( 'psi4out.xyz', 'w' )
f.write( "27  " )
f.write( str(ee) + "\n" )
f.write( MOL.save_string_xyz() )
f.close()
--------------------------------------------------------------------------

    Molecular point group: c1
  Charge       = 0
  Multiplicity = 1
  Basis Set: CC-PVTZ
  Basis Set:
  @DF-RHF Final Energy:  -388.42544525580212
    Total Energy =                       -388.4254452558024013
    Molecular point group: c1
  Basis Set: CC-PVTZ
  Basis Set:
  Basis Set: CC-PVTZ
  Basis Set:
  @DF-RHF Final Energy:  -388.42593988435198
    Total Energy =                       -388.4259398843520330
  Basis Set: CC-PVTZ
  Basis Set:
  Basis Set: CC-PVTZ
  Basis Set:
  @DF-RHF Final Energy:  -388.42607823326369
    Total Energy =                       -388.4260782332636381
  Basis Set: CC-PVTZ
  Basis Set:
  Basis Set: CC-PVTZ
  Basis Set:
  @DF-RHF Final Energy:  -388.42607888001493
    Total Energy =                       -388.4260788800154387
  Basis Set: CC-PVTZ
  Basis Set:
  Basis Set: CC-PVTZ
  Basis Set:
  @DF-RHF Final Energy:  -388.42608665463371
    Total Energy =                       -388.4260866546339912
  Basis Set: CC-PVTZ
  Basis Set:
  Basis Set: CC-PVTZ
  Basis Set:
  @DF-RHF Final Energy:  -388.42608835988449
    Total Energy =                       -388.4260883598843748
  Basis Set: CC-PVTZ
  Basis Set:
  Charge       = 0
  Multiplicity = 1
  Basis Set: CC-PVTZ
  Basis Set:

    Orbital Energies (a.u.)
    -----------------------

    Doubly Occupied:

       1A    -20.545273     2A    -11.265205     3A    -11.216954
       4A    -11.215016     5A    -11.214247     6A    -11.213040
       7A    -11.212839     8A    -11.212139     9A    -11.207687
      10A     -1.363293    11A     -1.096245    12A     -1.061618
      13A     -1.010921    14A     -0.951289    15A     -0.888778
      16A     -0.830505    17A     -0.802160    18A     -0.765999
      19A     -0.696600    20A     -0.656179    21A     -0.635106
      22A     -0.616559    23A     -0.605696    24A     -0.584466
      25A     -0.577168    26A     -0.554795    27A     -0.544463
      28A     -0.528642    29A     -0.513340    30A     -0.500124
      31A     -0.482482    32A     -0.477603    33A     -0.465071
      34A     -0.457306    35A     -0.448817    36A     -0.442096
      37A     -0.428490

  @DF-RHF Final Energy:  -388.42608837333518

   => Energetics <=

    Nuclear Repulsion Energy =            465.3399068479706671
    One-Electron Energy =               -1448.9555644498068432
    Two-Electron Energy =                 595.1895692285013411
    DFT Exchange-Correlation Energy =       0.0000000000000000
    Empirical Dispersion Energy =           0.0000000000000000
    PCM Polarization Energy =               0.0000000000000000
    EFP Energy =                            0.0000000000000000
    Total Energy =                       -388.4260883733347782
    Molecular point group: c1
  Basis Set: CC-PVTZ
  Basis Set:

  -Total Gradient:
     Atom            X                  Y                   Z
    ------   -----------------  -----------------  -----------------
       1        0.000011170267    -0.000011108278     0.000004035391
       2        0.000028426407     0.000000584328    -0.000024393799
       3       -0.000036737272     0.000011578697     0.000044293828
       4       -0.000104674267     0.000390705184    -0.000539369124
       5       -0.000008226414     0.000016769920    -0.000006551771
       6        0.000010888544    -0.000004752932     0.000006529015
       7        0.000149087596    -0.000448758508     0.000573360556
       8       -0.000004738690    -0.000005547019    -0.000006949015
       9       -0.000000800798     0.000006256197    -0.000003456833
      10       -0.000002191157    -0.000385260732     0.000707205540
      11        0.000000558306    -0.000016082737    -0.000001636241
      12        0.000001286985     0.000006817300     0.000005417310
      13       -0.000009608506    -0.000001702107     0.000002602119
      14       -0.000035522869     0.000441254763    -0.000758804333
      15       -0.000004358173    -0.000003552867    -0.000004412113
      16        0.000015204718     0.000001261682     0.000009425660
      17        0.000001175851    -0.000001691581    -0.000000230060
      18       -0.000006882744     0.000004643663     0.000003462596
      19       -0.000001442103    -0.000000710652    -0.000002931785
      20        0.000003266957     0.000000140687    -0.000004503687
      21       -0.000000255609    -0.000001163992     0.000000817912
      22       -0.000004517656     0.000002370660    -0.000002328794
      23        0.000000133873    -0.000003885917    -0.000001893764
      24        0.000000035377     0.000001272693     0.000001768066
      25       -0.000000544354     0.000000167074     0.000001573870
      26       -0.000000896062     0.000000380123    -0.000001690024
      27        0.000000161798     0.000000014359    -0.000001340524

  **** Optimization is complete! (in 7 steps) ****
    Final optimized geometry and variables:
    Molecular point group: c1

    Geometry (in Angstrom), charge = 0, multiplicity = 1:

    H            1.273738503145     3.757711309030    -0.612788623428
    O            2.037427956143     3.395306858066    -1.021364359334
    C            2.284466994351     2.103895825442    -0.531886299602
    C            1.300596244439     1.060654667690    -1.041820283739
    H            3.282939081464     1.849809859157    -0.861197277474
    H            2.295308300761     2.106169816867     0.556404913141
    C           -0.134634560204     1.276012626957    -0.564421463921
    H            1.327128232312     1.062013534602    -2.127480485091
    H            1.659004059034     0.087972514929    -0.718117586296
    C           -1.143270498357     0.261291899709    -1.111964709400
    H           -0.464914646431     2.261462349473    -0.879744518425
    H           -0.159643372884     1.280553990044     0.521639559321
    C           -0.983799824183    -1.186484553308    -0.639995841732
    H           -2.144483918704     0.601931674786    -0.862607414010
    H           -1.087405011250     0.277003356917    -2.197043472205
    C           -1.185079570131    -1.401115214460     0.858822016670
    H           -1.708833544779    -1.792189046133    -1.176595427305
    H           -0.009030648196    -1.567486538855    -0.929591543322
    C           -1.138769944781    -2.872424511257     1.263164769574
    H           -2.142455795818    -0.978768896915     1.156418948466
    H           -0.427633027843    -0.860679480633     1.418840111662
    C           -1.333345988586    -3.090056064973     2.759991482429
    H           -1.903528024111    -3.418500864730     0.717829614736
    H           -0.186435016855    -3.298210182717     0.958650166461
    H           -2.292130089631    -2.704109586946     3.090170171776
    H           -1.297155231627    -4.143705269911     3.012016463319
    H           -0.561330947273    -2.586802618448     3.332729590027

  Mulliken Charges: (a.u.)
   Center  Symbol    Alpha    Beta     Spin     Total
       1     H     0.39242  0.39242  0.00000  0.21516
       2     O     4.20556  4.20556  0.00000 -0.41112
       3     C     2.97812  2.97812  0.00000  0.04377
       4     C     3.08880  3.08880  0.00000 -0.17759
       5     H     0.44847  0.44847  0.00000  0.10306
       6     H     0.46935  0.46935  0.00000  0.06131
       7     C     3.11839  3.11839  0.00000 -0.23678
       8     H     0.45050  0.45050  0.00000  0.09900
       9     H     0.45623  0.45623  0.00000  0.08753
      10     C     3.10553  3.10553  0.00000 -0.21106
      11     H     0.44706  0.44706  0.00000  0.10589
      12     H     0.44958  0.44958  0.00000  0.10084
      13     C     3.10500  3.10500  0.00000 -0.21000
      14     H     0.44679  0.44679  0.00000  0.10642
      15     H     0.44606  0.44606  0.00000  0.10787
      16     C     3.08722  3.08722  0.00000 -0.17443
      17     H     0.44468  0.44468  0.00000  0.11064
      18     H     0.45019  0.45019  0.00000  0.09962
      19     C     3.08390  3.08390  0.00000 -0.16780
      20     H     0.45427  0.45427  0.00000  0.09145
      21     H     0.45507  0.45507  0.00000  0.08985
      22     C     3.14988  3.14988  0.00000 -0.29976
      23     H     0.45371  0.45371  0.00000  0.09257
      24     H     0.45434  0.45434  0.00000  0.09133
      25     H     0.45511  0.45511  0.00000  0.08979
      26     H     0.44808  0.44808  0.00000  0.10383
      27     H     0.45569  0.45569  0.00000  0.08861

   Total alpha = 37.00000, Total beta = 37.00000, Total charge = -0.00000
