  ==> Input File <==

--------------------------------------------------------------------------
set {
	reference rhf
	basis 6-31G*
}

set_num_threads( 4 )
memory 2 gb

molecule MOL {
0 1

H	 -3.892951	 0.981613	 -0.358725
C	 -3.196921	 0.361773	 0.172313
C	 -2.076860	 -0.007332	 -0.404944
H	 -3.439953	 0.057760	 1.173024
O	 -1.180634	 -0.819263	 0.215062
H	 -1.811520	 0.292194	 -1.403480
C	 0.051604	 -1.018856	 -0.387932
C	 1.043764	 0.054862	 -0.001873
H	 -0.017620	 -1.041351	 -1.469781
H	 0.437898	 -1.966374	 -0.042284
F	 1.475700	 -0.166809	 1.231050
F	 2.097425	 0.059892	 -0.801626
F	 0.508877	 1.257867	 -0.034497

	symmetry c1
}
set optking {
	frozen_dihedral = ("
		11 8 7 9
	")
}

ee = optimize('scf')
oeprop('DIPOLE', 'QUADRUPOLE', 'MULLIKEN_CHARGES')
f=open( 'psi4out.xyz', 'w' )
f.write( "13  " )
f.write( str(ee) + "\n" )
f.write( MOL.save_string_xyz() )
f.close()
--------------------------------------------------------------------------

    Molecular point group: c1
  Charge       = 0
  Multiplicity = 1
  Basis Set: 6-31G*
  Basis Set:
  @DF-RHF Final Energy:  -527.53399912248483
    Total Energy =                       -527.5339991224848291
    Molecular point group: c1
  Basis Set: 6-31G*
  Basis Set:
  Basis Set: 6-31G*
  Basis Set:
  @DF-RHF Final Energy:  -527.53457203526978
    Total Energy =                       -527.5345720352693206
  Basis Set: 6-31G*
  Basis Set:
  Basis Set: 6-31G*
  Basis Set:
  @DF-RHF Final Energy:  -527.53470054866034
    Total Energy =                       -527.5347005486603393
  Basis Set: 6-31G*
  Basis Set:
  Basis Set: 6-31G*
  Basis Set:
  @DF-RHF Final Energy:  -527.53471475401375
    Total Energy =                       -527.5347147540137485
  Basis Set: 6-31G*
  Basis Set:
  Basis Set: 6-31G*
  Basis Set:
  @DF-RHF Final Energy:  -527.53471849990160
    Total Energy =                       -527.5347184999017145
  Basis Set: 6-31G*
  Basis Set:
  Basis Set: 6-31G*
  Basis Set:
  @DF-RHF Final Energy:  -527.53472103215108
    Total Energy =                       -527.5347210321508555
  Basis Set: 6-31G*
  Basis Set:
  Basis Set: 6-31G*
  Basis Set:
  @DF-RHF Final Energy:  -527.53472241596421
    Total Energy =                       -527.5347224159643247
  Basis Set: 6-31G*
  Basis Set:
  Charge       = 0
  Multiplicity = 1
  Basis Set: 6-31G*
  Basis Set:

    Orbital Energies (a.u.)
    -----------------------

    Doubly Occupied:

       1A    -26.345409     2A    -26.343191     3A    -26.340616
       4A    -20.608965     5A    -11.503652     6A    -11.318844
       7A    -11.299795     8A    -11.215765     9A     -1.742018
      10A     -1.640877    11A     -1.637397    12A     -1.438857
      13A     -1.084049    14A     -1.016387    15A     -0.925711
      16A     -0.836994    17A     -0.831278    18A     -0.821412
      19A     -0.790623    20A     -0.724523    21A     -0.712413
      22A     -0.696097    23A     -0.675621    24A     -0.659969
      25A     -0.655019    26A     -0.643144    27A     -0.632849
      28A     -0.584554    29A     -0.562653    30A     -0.525188
      31A     -0.513867    32A     -0.351427

  @DF-RHF Final Energy:  -527.53472304131924

   => Energetics <=

    Nuclear Repulsion Energy =            412.7679600218166911
    One-Electron Energy =               -1549.2470330833098160
    Two-Electron Energy =                 608.9443500201739425
    DFT Exchange-Correlation Energy =       0.0000000000000000
    Empirical Dispersion Energy =           0.0000000000000000
    PCM Polarization Energy =               0.0000000000000000
    EFP Energy =                            0.0000000000000000
    Total Energy =                       -527.5347230413192392
    Molecular point group: c1
  Basis Set: 6-31G*
  Basis Set:

  -Total Gradient:
     Atom            X                  Y                   Z
    ------   -----------------  -----------------  -----------------
       1       -0.000003351181    -0.000008737368    -0.000004433694
       2        0.000011580304     0.000008628609     0.000000991685
       3       -0.000017254454    -0.000009742102     0.000042716424
       4        0.000003973428    -0.000000970207    -0.000000138065
       5       -0.000047921413     0.000006146467    -0.000002158926
       6        0.000008431440    -0.000013786140    -0.000023721068
       7       -0.002598740307     0.002612781494    -0.000309283465
       8       -0.002565102714     0.002011313060     0.001380847653
       9        0.002781457000    -0.002654065555    -0.000040420705
      10       -0.000009072955    -0.000021537426    -0.000012932222
      11        0.002393771658    -0.001897866462    -0.001091881567
      12       -0.000019296023    -0.000009488011     0.000039449093
      13        0.000061525211    -0.000022676355     0.000020964857

  **** Optimization is complete! (in 8 steps) ****
    Final optimized geometry and variables:
    Molecular point group: c1

    Geometry (in Angstrom), charge = 0, multiplicity = 1:

    H           -3.932453312983     0.964837219993    -0.363179576717
    C           -3.241241236423     0.334278056215     0.161464445416
    C           -2.091138098289     0.023083275251    -0.390139239063
    H           -3.512710459296    -0.025951584401     1.135961798448
    O           -1.194251201898    -0.790981683831     0.225992188991
    H           -1.797690919790     0.378755330163    -1.361892377231
    C            0.030175263152    -0.999313315789    -0.386164271385
    C            1.050260718550     0.053782310931    -0.002814232756
    H           -0.032176032289    -1.036081681626    -1.467760952322
    H            0.408819655398    -1.951810769385    -0.044255130169
    F            1.498340605267    -0.115512001781     1.226415471461
    F            2.094977611781    -0.036354070255    -0.815620446022
    F            0.568129182900     1.277910276049    -0.099469839090

  Mulliken Charges: (a.u.)
   Center  Symbol    Alpha    Beta     Spin     Total
       1     H     0.40708  0.40708  0.00000  0.18585
       2     C     3.23668  3.23668  0.00000 -0.47336
       3     C     2.89329  2.89329  0.00000  0.21341
       4     H     0.40199  0.40199  0.00000  0.19602
       5     O     4.30119  4.30119  0.00000 -0.60238
       6     H     0.40699  0.40699  0.00000  0.18602
       7     C     3.06907  3.06907  0.00000 -0.13814
       8     C     2.45296  2.45296  0.00000  1.09407
       9     H     0.40443  0.40443  0.00000  0.19115
      10     H     0.38883  0.38883  0.00000  0.22234
      11     F     4.67629  4.67629  0.00000 -0.35258
      12     F     4.68431  4.68431  0.00000 -0.36862
      13     F     4.67689  4.67689  0.00000 -0.35378

   Total alpha = 32.00000, Total beta = 32.00000, Total charge = -0.00000
