  ==> Input File <==

--------------------------------------------------------------------------
set {
	reference rhf
	basis 6-31G*
}

set_num_threads( 4 )
memory 2 gb

molecule MOL {
0 1

O	 0.796840	 0.044119	 0.765367
C	 1.705091	 0.115954	 0.001797
C	 1.868688	 1.163278	 -1.072547
O	 2.721346	 -0.737485	 -0.000216
C	 0.726271	 2.173662	 -1.113208
H	 2.823130	 1.654646	 -0.904284
H	 1.967792	 0.642600	 -2.021121
C	 0.918067	 3.222810	 -2.209366
H	 0.645031	 2.660624	 -0.146535
H	 -0.211018	 1.647767	 -1.265631
C	 -0.218549	 4.245061	 -2.263825
H	 1.861305	 3.744198	 -2.052992
H	 1.001229	 2.728107	 -3.175924
C	 -0.026962	 5.292356	 -3.360055
H	 -0.301271	 4.741969	 -1.299781
H	 -1.161353	 3.725834	 -2.420863
H	 0.891686	 5.852802	 -3.211064
H	 -0.848362	 6.001986	 -3.373432
H	 0.025232	 4.828497	 -4.341086
C	 4.024888	 -0.184556	 -0.001949
H	 4.179030	 0.422472	 -0.882452
H	 4.701782	 -1.024608	 -0.003642
H	 4.181981	 0.421185	 0.878906

	symmetry c1
}
set optking {
	frozen_dihedral = ("
		1 2 4 20
	")
}

ee = optimize('scf')
oeprop('DIPOLE', 'QUADRUPOLE', 'MULLIKEN_CHARGES')
f=open( 'psi4out.xyz', 'w' )
f.write( "23  " )
f.write( str(ee) + "\n" )
f.write( MOL.save_string_xyz() )
f.close()
--------------------------------------------------------------------------

    Molecular point group: c1
  Charge       = 0
  Multiplicity = 1
  Basis Set: 6-31G*
  Basis Set:
  @DF-RHF Final Energy:  -422.95018010192024
    Total Energy =                       -422.9501801019206368
    Molecular point group: c1
  Basis Set: 6-31G*
  Basis Set:
  Basis Set: 6-31G*
  Basis Set:
  @DF-RHF Final Energy:  -422.95055910618532
    Total Energy =                       -422.9505591061852101
  Basis Set: 6-31G*
  Basis Set:
  Basis Set: 6-31G*
  Basis Set:
  @DF-RHF Final Energy:  -422.95522105054312
    Total Energy =                       -422.9552210505429457
  Basis Set: 6-31G*
  Basis Set:
  Basis Set: 6-31G*
  Basis Set:
  @DF-RHF Final Energy:  -422.95586288340598
    Total Energy =                       -422.9558628834057572
  Basis Set: 6-31G*
  Basis Set:
  @DF-RHF Final Energy:  -422.95674280492244
    Total Energy =                       -422.9567428049225555
  Basis Set: 6-31G*
  Basis Set:
  @DF-RHF Final Energy:  -422.95695293665699
    Total Energy =                       -422.9569529366569896
  Basis Set: 6-31G*
  Basis Set:
  Basis Set: 6-31G*
  Basis Set:
  @DF-RHF Final Energy:  -422.95697718006062
    Total Energy =                       -422.9569771800603348
  Basis Set: 6-31G*
  Basis Set:
  Basis Set: 6-31G*
  Basis Set:
  @DF-RHF Final Energy:  -422.95698737629164
    Total Energy =                       -422.9569873762912948
  Basis Set: 6-31G*
  Basis Set:
  Charge       = 0
  Multiplicity = 1
  Basis Set: 6-31G*
  Basis Set:

    Orbital Energies (a.u.)
    -----------------------

    Doubly Occupied:

       1A    -20.592088     2A    -20.549929     3A    -11.374407
       4A    -11.295114     5A    -11.243137     6A    -11.223528
       7A    -11.221521     8A    -11.219107     9A    -11.211953
      10A     -1.459810    11A     -1.367255    12A     -1.095918
      13A     -1.041513    14A     -0.982547    15A     -0.950054
      16A     -0.853271    17A     -0.798783    18A     -0.765778
      19A     -0.697711    20A     -0.683123    21A     -0.673595
      22A     -0.653641    23A     -0.617337    24A     -0.606298
      25A     -0.580352    26A     -0.570025    27A     -0.557145
      28A     -0.540159    29A     -0.511728    30A     -0.502005
      31A     -0.487492    32A     -0.475605    33A     -0.470386
      34A     -0.468397    35A     -0.449220    36A     -0.431188

  @DF-RHF Final Energy:  -422.95698778063246

   => Energetics <=

    Nuclear Repulsion Energy =            453.9033247308071282
    One-Electron Energy =               -1475.2783811569656791
    Two-Electron Energy =                 598.4180686455264322
    DFT Exchange-Correlation Energy =       0.0000000000000000
    Empirical Dispersion Energy =           0.0000000000000000
    PCM Polarization Energy =               0.0000000000000000
    EFP Energy =                            0.0000000000000000
    Total Energy =                       -422.9569877806321756
    Molecular point group: c1
  Basis Set: 6-31G*
  Basis Set:

  -Total Gradient:
     Atom            X                  Y                   Z
    ------   -----------------  -----------------  -----------------
       1        0.002300757054     0.001967218196     0.002406835578
       2       -0.003352674707    -0.002732729066    -0.001814015983
       3        0.000000490433     0.000039391904     0.000019290540
       4        0.000957631175     0.000710277466    -0.003850285402
       5        0.000048791319     0.000008362007     0.000021388296
       6       -0.000002376403    -0.000004014132    -0.000003553599
       7        0.000004797526    -0.000005607758    -0.000004771677
       8       -0.000020978750    -0.000008004143    -0.000021026279
       9       -0.000002812898    -0.000007924069     0.000012493426
      10       -0.000002865667     0.000008731884    -0.000008220838
      11       -0.000008380938    -0.000017628781    -0.000019619817
      12        0.000001603147    -0.000003721253    -0.000012543500
      13       -0.000010651012    -0.000008447621    -0.000002624139
      14        0.000015265160     0.000020243154     0.000023185834
      15       -0.000009641082    -0.000011957741     0.000002190623
      16        0.000002061418    -0.000001021474    -0.000015407610
      17        0.000007461757     0.000002804596    -0.000008597931
      18        0.000004434429     0.000006021479     0.000007959298
      19       -0.000008411837    -0.000004100230     0.000007236331
      20        0.000073193778     0.000059878418     0.003269755502
      21       -0.000019107404    -0.000013794123    -0.000001083276
      22       -0.000013006680    -0.000005888393    -0.000007987268
      23        0.000034420182     0.000001909682    -0.000000598115

  **** Optimization is complete! (in 9 steps) ****
    Final optimized geometry and variables:
    Molecular point group: c1

    Geometry (in Angstrom), charge = 0, multiplicity = 1:

    O           -0.511451858104    -1.489987751559     1.852662586435
    C            0.357054188209    -1.479752676682     1.051109689825
    C            0.511627028020    -0.414466476099    -0.014869686263
    O            1.268746095831    -2.469848079077     1.031937019192
    C           -0.698994356692     0.510044658159    -0.119088620019
    H            1.404407025853     0.165598004230     0.208611384216
    H            0.706694216030    -0.913149939311    -0.960600324516
    C           -0.521606234101     1.578931841073    -1.198403891971
    H           -0.871652360135     0.979158590095     0.843478125070
    H           -1.583384363862    -0.083360729341    -0.329351850712
    C           -1.726896800918     2.513419370355    -1.316585589205
    H            0.368416096446     2.168958128510    -0.983593184052
    H           -0.344235613351     1.100348921802    -2.160410159007
    C           -1.546367339842     3.586691956980    -2.389291467577
    H           -1.907622919076     2.989532804199    -0.355562407571
    H           -2.615604629838     1.926871190996    -1.538076573124
    H           -0.683428341736     4.211938572497    -2.177773838214
    H           -2.416201800653     4.233345138289    -2.448033070351
    H           -1.398814485488     3.141343759863    -3.369170261156
    C            2.643536870533    -2.160050018220     1.003861825494
    H            2.944590076649    -1.742832965485     0.050331347776
    H            3.163317451010    -3.092280420982     1.160059819480
    H            2.903008967997    -1.472580211054     1.800659842902

  Mulliken Charges: (a.u.)
   Center  Symbol    Alpha    Beta     Spin     Total
       1     O     4.25569  4.25569  0.00000 -0.51138
       2     C     2.60660  2.60660  0.00000  0.78681
       3     C     3.22628  3.22628  0.00000 -0.45257
       4     O     4.30945  4.30945  0.00000 -0.61890
       5     C     3.15069  3.15069  0.00000 -0.30139
       6     H     0.40532  0.40532  0.00000  0.18936
       7     H     0.40195  0.40195  0.00000  0.19609
       8     C     3.15357  3.15357  0.00000 -0.30713
       9     H     0.40821  0.40821  0.00000  0.18359
      10     H     0.41113  0.41113  0.00000  0.17773
      11     C     3.15189  3.15189  0.00000 -0.30377
      12     H     0.42499  0.42499  0.00000  0.15002
      13     H     0.42399  0.42399  0.00000  0.15202
      14     C     3.23970  3.23970  0.00000 -0.47939
      15     H     0.42072  0.42072  0.00000  0.15856
      16     H     0.42061  0.42061  0.00000  0.15879
      17     H     0.42198  0.42198  0.00000  0.15605
      18     H     0.41784  0.41784  0.00000  0.16433
      19     H     0.42174  0.42174  0.00000  0.15652
      20     C     3.09399  3.09399  0.00000 -0.18797
      21     H     0.41868  0.41868  0.00000  0.16264
      22     H     0.39962  0.39962  0.00000  0.20077
      23     H     0.41538  0.41538  0.00000  0.16923

   Total alpha = 36.00000, Total beta = 36.00000, Total charge = -0.00000
