                              Psi4 1.0.54 Driver

  ==> Input File <==

--------------------------------------------------------------------------
set {
	reference rhf
	basis cc-pvtz
}

set_num_threads( 4 )
memory 2 gb

molecule MOL {
0 1

H	 -1.769860	 -0.273386	 0.702618
N	 -1.173824	 -0.310545	 -0.096857
C	 -0.022588	 0.563366	 0.065815
H	 -0.886662	 -1.260833	 -0.206877
C	 1.270420	 -0.230572	 -0.014245
H	 -0.045354	 1.293678	 -0.735129
H	 -0.043155	 1.123061	 1.001180
H	 1.336273	 -0.754933	 -0.959364
H	 2.130728	 0.422015	 0.082222
H	 1.323344	 -0.967006	 0.781773

	symmetry c1
}
set optking {
	frozen_dihedral = ("
		1 2 3 6
	")
}

ee,wfn = optimize('scf', return_wfn=True)
oeprop( wfn, 'DIPOLE', 'QUADRUPOLE', 'MULLIKEN_CHARGES')
f=open( 'psi4out.xyz', 'w' )
f.write( "10  " )
f.write( str(ee) + "\n" )
f.write( MOL.save_string_xyz() )
f.close()
--------------------------------------------------------------------------

    Molecular point group: c1
  Charge       = 0
  Multiplicity = 1
  Basis Set: CC-PVTZ
  Basis Set:
  @DF-RHF Final Energy:  -134.30010475168382
    Total Energy =                       -134.3001047516837900
    Molecular point group: c1
  Basis Set: CC-PVTZ
  Basis Set:
  Basis Set: CC-PVTZ
  Basis Set:
  @DF-RHF Final Energy:  -134.30076280026285
    Total Energy =                       -134.3007628002628735
  Basis Set: CC-PVTZ
  Basis Set:
  Basis Set: CC-PVTZ
  Basis Set:
  @DF-RHF Final Energy:  -134.30089286570987
    Total Energy =                       -134.3008928657098409
  Basis Set: CC-PVTZ
  Basis Set:
  Basis Set: CC-PVTZ
  Basis Set:
  @DF-RHF Final Energy:  -134.30090158913703
    Total Energy =                       -134.3009015891369700
  Basis Set: CC-PVTZ
  Basis Set:
  Charge       = 0
  Multiplicity = 1
  Basis Set: CC-PVTZ
  Basis Set:

    Orbital Energies (a.u.)
    -----------------------

    Doubly Occupied:

       1A    -15.523619     2A    -11.240941     3A    -11.210900
       4A     -1.174754     5A     -0.990288     6A     -0.831152
       7A     -0.666523     8A     -0.610893     9A     -0.595612
      10A     -0.533897    11A     -0.506690    12A     -0.489899
      13A     -0.378676

  @DF-RHF Final Energy:  -134.30090289546797

   => Energetics <=

    Nuclear Repulsion Energy =             83.3811409731030153
    One-Electron Energy =                -345.8563982934530259
    Two-Electron Energy =                 128.1743544248821252
    DFT Exchange-Correlation Energy =       0.0000000000000000
    Empirical Dispersion Energy =           0.0000000000000000
    PCM Polarization Energy =               0.0000000000000000
    EFP Energy =                            0.0000000000000000
    Total Energy =                       -134.3009028954678854
    Molecular point group: c1
  Basis Set: CC-PVTZ
  Basis Set:

  -Total Gradient:
     Atom            X                  Y                   Z
    ------   -----------------  -----------------  -----------------
       1       -0.000264967366     0.000408912227    -0.000184817236
       2        0.000151400705    -0.000475240025     0.000273122504
       3        0.000381478081    -0.000264912646    -0.000349154808
       4        0.000031079184     0.000021315837    -0.000003971305
       5       -0.000063658145     0.000013514168     0.000030701409
       6       -0.000239989617     0.000243556776     0.000283720971
       7       -0.000008390178     0.000020650913     0.000010210710
       8        0.000013965011    -0.000010288575     0.000005016209
       9        0.000011860685     0.000007100769    -0.000007652117
      10       -0.000012778360     0.000035390555    -0.000057176338

  **** Optimization is complete! (in 5 steps) ****
    Final optimized geometry and variables:
    Molecular point group: c1

    Geometry (in Angstrom), charge = 0, multiplicity = 1:

    H           -1.776152237257    -0.222342881649     0.769224877104
    N           -1.215186609892    -0.265903165148    -0.051637920223
    C           -0.020021173678     0.566499739181     0.052657257899
    H           -0.990484916160    -1.221916625977    -0.218813645738
    C            1.272684293098    -0.229764036097    -0.042310619969
    H           -0.034524623846     1.312439958205    -0.735571827202
    H           -0.034059361603     1.113876946461     0.989501752880
    H            1.312822833063    -0.785762311526    -0.973645003206
    H            2.135268226401     0.426079529703    -0.012305116439
    H            1.356113317310    -0.937277229489     0.775888668017

  Mulliken Charges: (a.u.)
   Center  Symbol    Alpha    Beta     Spin     Total
       1     H     0.42661  0.42661  0.00000  0.14678
       2     N     3.69552  3.69552  0.00000 -0.39105
       3     C     3.01297  3.01297  0.00000 -0.02594
       4     H     0.42815  0.42815  0.00000  0.14371
       5     C     3.14582  3.14582  0.00000 -0.29163
       6     H     0.46369  0.46369  0.00000  0.07263
       7     H     0.46313  0.46313  0.00000  0.07374
       8     H     0.45411  0.45411  0.00000  0.09177
       9     H     0.45292  0.45292  0.00000  0.09416
      10     H     0.45708  0.45708  0.00000  0.08583

   Total alpha = 13.00000, Total beta = 13.00000, Total charge =  0.00000

*** Psi4 exiting successfully. Buy a developer a beer!
