  ==> Input File <==

--------------------------------------------------------------------------
set {
	reference rhf
	basis 6-31G*
}

set_num_threads( 4 )
memory 2 gb

molecule MOL {
0 1

O	 3.225979	 0.970355	 -0.599647
C	 2.701189	 0.057885	 -0.047330
C	 1.245376	 -0.013843	 0.345420
O	 3.347903	 -1.046386	 0.304773
C	 0.479196	 1.272807	 0.046064
H	 0.819197	 -0.869775	 -0.167361
H	 1.208092	 -0.253804	 1.405007
C	 -0.973340	 1.253914	 0.534201
H	 0.505757	 1.465720	 -1.022205
H	 1.000002	 2.101852	 0.512828
C	 -1.881183	 0.248551	 -0.180064
H	 -1.386520	 2.250992	 0.400628
H	 -0.993228	 1.060575	 1.605758
C	 -3.341822	 0.344954	 0.265175
H	 -1.821367	 0.413284	 -1.254822
H	 -1.527385	 -0.765145	 -0.006225
C	 -4.257383	 -0.658607	 -0.438205
H	 -3.707905	 1.353756	 0.082045
H	 -3.401101	 0.190959	 1.341498
C	 -5.714907	 -0.553191	 0.009245
H	 -4.198587	 -0.506780	 -1.513907
H	 -3.895589	 -1.667805	 -0.252718
H	 -6.338505	 -1.276795	 -0.506633
H	 -6.117156	 0.435091	 -0.194934
H	 -5.811633	 -0.734284	 1.076073
C	 4.728119	 -1.109107	 -0.004993
H	 4.882018	 -1.033965	 -1.071845
H	 5.068212	 -2.067527	 0.355250
H	 5.265056	 -0.311663	 0.488280

	symmetry c1
}
set optking {
	frozen_dihedral = ("
		6 3 2 1
	")
}

ee = optimize('scf')
oeprop('DIPOLE', 'QUADRUPOLE', 'MULLIKEN_CHARGES')
f=open( 'psi4out.xyz', 'w' )
f.write( "29  " )
f.write( str(ee) + "\n" )
f.write( MOL.save_string_xyz() )
f.close()
--------------------------------------------------------------------------

    Molecular point group: c1
  Charge       = 0
  Multiplicity = 1
  Basis Set: 6-31G*
  Basis Set:
  @DF-RHF Final Energy:  -501.04409134908997
    Total Energy =                       -501.0440913490895127
    Molecular point group: c1
  Basis Set: 6-31G*
  Basis Set:
  Basis Set: 6-31G*
  Basis Set:
  @DF-RHF Final Energy:  -501.04400304195508
    Total Energy =                       -501.0440030419555342
  Basis Set: 6-31G*
  Basis Set:
  Basis Set: 6-31G*
  Basis Set:
  @DF-RHF Final Energy:  -501.04409823105107
    Total Energy =                       -501.0440982310506115
  Basis Set: 6-31G*
  Basis Set:
  Basis Set: 6-31G*
  Basis Set:
  @DF-RHF Final Energy:  -501.04409990132376
    Total Energy =                       -501.0440999013230794
  Basis Set: 6-31G*
  Basis Set:
  Charge       = 0
  Multiplicity = 1
  Basis Set: 6-31G*
  Basis Set:

    Orbital Energies (a.u.)
    -----------------------

    Doubly Occupied:

       1A    -20.603371     2A    -20.545145     3A    -11.371980
       4A    -11.280652     5A    -11.234730     6A    -11.219137
       7A    -11.217651     8A    -11.216008     9A    -11.215853
      10A    -11.214463    11A    -11.209063    12A     -1.469050
      13A     -1.362483    14A     -1.098093    15A     -1.066804
      16A     -1.019485    17A     -0.977210    18A     -0.928584
      19A     -0.861634    20A     -0.799252    21A     -0.790512
      22A     -0.763728    23A     -0.700738    24A     -0.682346
      25A     -0.672137    26A     -0.650922    27A     -0.628888
      28A     -0.604607    29A     -0.594847    30A     -0.580845
      31A     -0.567527    32A     -0.548535    33A     -0.532356
      34A     -0.530325    35A     -0.516170    36A     -0.511623
      37A     -0.496442    38A     -0.477766    39A     -0.470152
      40A     -0.462363    41A     -0.458718    42A     -0.455928
      43A     -0.441474    44A     -0.435072

  @DF-RHF Final Energy:  -501.04409944568124

   => Energetics <=

    Nuclear Repulsion Energy =            610.2392759646950253
    One-Electron Energy =               -1891.5974077783496341
    Two-Electron Energy =                 780.3140323679733683
    DFT Exchange-Correlation Energy =       0.0000000000000000
    Empirical Dispersion Energy =           0.0000000000000000
    PCM Polarization Energy =               0.0000000000000000
    EFP Energy =                            0.0000000000000000
    Total Energy =                       -501.0440994456812405
    Molecular point group: c1
  Basis Set: 6-31G*
  Basis Set:

  -Total Gradient:
     Atom            X                  Y                   Z
    ------   -----------------  -----------------  -----------------
       1       -0.000042912008    -0.000080099000    -0.000165922087
       2        0.000067747269     0.000136769687     0.000234544931
       3       -0.000002913640    -0.000176283751     0.000004680391
       4       -0.000002533328    -0.000001097141    -0.000001883098
       5        0.000025510696     0.000035051118     0.000084321981
       6       -0.000075291626     0.000063039304    -0.000114502315
       7        0.000014600486     0.000017050510    -0.000017977429
       8       -0.000009546260     0.000020151411    -0.000020903905
       9        0.000000562571     0.000007114721     0.000003357780
      10        0.000005356138    -0.000008973726     0.000001718129
      11        0.000010116137    -0.000013059155     0.000006676958
      12       -0.000009113547    -0.000006664494    -0.000014107387
      13       -0.000002274165     0.000021531651    -0.000000693053
      14       -0.000001604722    -0.000006160701     0.000001713081
      15       -0.000005861434     0.000009266141     0.000010817264
      16        0.000030949228    -0.000020211576    -0.000011056554
      17       -0.000000689560     0.000000539257    -0.000000124721
      18        0.000002535107    -0.000000057768    -0.000006984502
      19       -0.000004865227     0.000005608388     0.000001788592
      20        0.000001865442    -0.000006666745     0.000006951814
      21       -0.000002177103     0.000004303702     0.000000564756
      22        0.000001324203    -0.000000516982    -0.000004703307
      23        0.000000408547    -0.000001916733     0.000002169747
      24        0.000001672272    -0.000001181133    -0.000002306634
      25       -0.000001928737     0.000001868726     0.000001621836
      26       -0.000003960762    -0.000003179641    -0.000008738506
      27        0.000005037381     0.000000185292     0.000002537566
      28        0.000000984654     0.000001106050     0.000002910779
      29       -0.000002998014     0.000002482587     0.000003527893

  **** Optimization is complete! (in 5 steps) ****
    Final optimized geometry and variables:
    Molecular point group: c1

    Geometry (in Angstrom), charge = 0, multiplicity = 1:

    O            3.223901636188     0.918006586753    -0.609195569180
    C            2.697812209357     0.006072263559    -0.057209437562
    C            1.242478403398    -0.062152671293     0.337691646727
    O            3.340457946138    -1.103674177854     0.284928195260
    C            0.477776632423     1.224242918365     0.032907263847
    H            0.816241802153    -0.917305032335    -0.177244337761
    H            1.201988197871    -0.301850718092     1.396726983995
    C           -0.976856165394     1.206130871744     0.514797002457
    H            0.509613632678     1.415511875864    -1.035261551090
    H            0.996171784893     2.054331277205     0.501050729380
    C           -1.879961677108     0.195303914567    -0.197797653610
    H           -1.390876538206     2.201805032213     0.373566456649
    H           -1.001383258154     1.018913281970     1.587330878380
    C           -3.342470978089     0.290988390869     0.241460745556
    H           -1.816390230239     0.354694354874    -1.273126418005
    H           -1.524816154810    -0.816789101814    -0.017423466080
    C           -4.253030895314    -0.719164924991    -0.458957131738
    H           -3.710276688715     1.297738406808     0.050678895418
    H           -3.405334275063     0.143578512948     1.318498505245
    C           -5.712047118849    -0.615969756329    -0.015862122707
    H           -4.191880483326    -0.572895997073    -1.535293164356
    H           -3.888571736662    -1.726216334502    -0.267129720793
    H           -6.331915609687    -1.344625925701    -0.529120707636
    H           -6.117010660077     0.369771528243    -0.226829061569
    H           -5.810938873429    -0.791170629129     1.051752256317
    C            4.717114780812    -1.174635731660    -0.038610039288
    H            4.861192959188    -1.096615813914    -1.106642887359
    H            5.054158928839    -2.136638264722     0.314869067850
    H            5.264176296821    -0.382654423453     0.452307285066

  Mulliken Charges: (a.u.)
   Center  Symbol    Alpha    Beta     Spin     Total
       1     O     4.28598  4.28598  0.00000 -0.57196
       2     C     2.60487  2.60487  0.00000  0.79026
       3     C     3.20963  3.20963  0.00000 -0.41925
       4     O     4.30746  4.30746  0.00000 -0.61493
       5     C     3.15374  3.15374  0.00000 -0.30748
       6     H     0.39868  0.39868  0.00000  0.20265
       7     H     0.40137  0.40137  0.00000  0.19727
       8     C     3.15655  3.15655  0.00000 -0.31310
       9     H     0.41216  0.41216  0.00000  0.17567
      10     H     0.40979  0.40979  0.00000  0.18042
      11     C     3.15516  3.15516  0.00000 -0.31032
      12     H     0.41823  0.41823  0.00000  0.16354
      13     H     0.42387  0.42387  0.00000  0.15225
      14     C     3.15028  3.15028  0.00000 -0.30056
      15     H     0.42251  0.42251  0.00000  0.15498
      16     H     0.42366  0.42366  0.00000  0.15269
      17     C     3.15146  3.15146  0.00000 -0.30292
      18     H     0.42331  0.42331  0.00000  0.15338
      19     H     0.42398  0.42398  0.00000  0.15204
      20     C     3.23935  3.23935  0.00000 -0.47870
      21     H     0.42278  0.42278  0.00000  0.15445
      22     H     0.42345  0.42345  0.00000  0.15311
      23     H     0.41923  0.41923  0.00000  0.16155
      24     H     0.42154  0.42154  0.00000  0.15692
      25     H     0.42183  0.42183  0.00000  0.15633
      26     C     3.09242  3.09242  0.00000 -0.18483
      27     H     0.40915  0.40915  0.00000  0.18169
      28     H     0.40852  0.40852  0.00000  0.18296
      29     H     0.40905  0.40905  0.00000  0.18189

   Total alpha = 44.00000, Total beta = 44.00000, Total charge =  0.00000
