  ==> Input File <==

--------------------------------------------------------------------------
set {
	reference rhf
	basis cc-pvtz
}

set_num_threads( 4 )
memory 2 gb

molecule MOL {
0 1

H	 2.785797	 -2.462822	 -3.740175
C	 2.395419	 -2.391660	 -2.731885
C	 1.154048	 -1.507641	 -2.685388
H	 2.172401	 -3.397922	 -2.393156
H	 3.184521	 -1.998271	 -2.099762
C	 0.572289	 -1.379255	 -1.285373
H	 0.389198	 -1.903897	 -3.343985
H	 1.402887	 -0.517892	 -3.060956
N	 -0.616576	 -0.554459	 -1.278574
H	 0.300312	 -2.364501	 -0.918644
H	 1.341888	 -0.999570	 -0.606668
C	 -1.215959	 -0.382435	 0.027143
H	 -0.409416	 0.338613	 -1.674588
C	 -2.451944	 0.502410	 -0.038737
H	 -1.496651	 -1.362828	 0.400265
H	 -0.511067	 0.033309	 0.753339
C	 -3.752217	 -0.292550	 0.005776
H	 -2.407325	 1.093801	 -0.946480
H	 -2.431979	 1.206234	 0.790023
H	 -3.817783	 -0.982946	 -0.828547
H	 -4.612613	 0.364348	 -0.042306
H	 -3.830160	 -0.871666	 0.919868

	symmetry c1
}
set optking {
	frozen_dihedral = ("
		15 12 14 18
	")
}

ee = optimize('scf')
oeprop('DIPOLE', 'QUADRUPOLE', 'MULLIKEN_CHARGES')
f=open( 'psi4out.xyz', 'w' )
f.write( "22  " )
f.write( str(ee) + "\n" )
f.write( MOL.save_string_xyz() )
f.close()
--------------------------------------------------------------------------

    Molecular point group: c1
  Charge       = 0
  Multiplicity = 1
  Basis Set: CC-PVTZ
  Basis Set:
  @DF-RHF Final Energy:  -290.48514180047977
    Total Energy =                       -290.4851418004798234
    Molecular point group: c1
  Basis Set: CC-PVTZ
  Basis Set:
  Basis Set: CC-PVTZ
  Basis Set:
  @DF-RHF Final Energy:  -290.48564438964820
    Total Energy =                       -290.4856443896479732
  Basis Set: CC-PVTZ
  Basis Set:
  Basis Set: CC-PVTZ
  Basis Set:
  @DF-RHF Final Energy:  -290.48575528416598
    Total Energy =                       -290.4857552841665438
  Basis Set: CC-PVTZ
  Basis Set:
  Basis Set: CC-PVTZ
  Basis Set:
  @DF-RHF Final Energy:  -290.48575884059039
    Total Energy =                       -290.4857588405905062
  Basis Set: CC-PVTZ
  Basis Set:
  Charge       = 0
  Multiplicity = 1
  Basis Set: CC-PVTZ
  Basis Set:

    Orbital Energies (a.u.)
    -----------------------

    Doubly Occupied:

       1A    -15.528793     2A    -11.236472     3A    -11.236138
       4A    -11.212095     5A    -11.211673     6A    -11.207734
       7A    -11.202901     8A     -1.207147     9A     -1.058720
      10A     -1.024372    11A     -0.927043    12A     -0.870532
      13A     -0.811039    14A     -0.793865    15A     -0.663293
      16A     -0.634489    17A     -0.615032    18A     -0.608460
      19A     -0.572424    20A     -0.563554    21A     -0.540830
      22A     -0.524574    23A     -0.506026    24A     -0.488174
      25A     -0.477445    26A     -0.474660    27A     -0.467312
      28A     -0.451240    29A     -0.361036

  @DF-RHF Final Energy:  -290.48575958060479

   => Energetics <=

    Nuclear Repulsion Energy =            315.9426968235943036
    One-Electron Energy =               -1017.9027700638296210
    Two-Electron Energy =                 411.4743136596308659
    DFT Exchange-Correlation Energy =       0.0000000000000000
    Empirical Dispersion Energy =           0.0000000000000000
    PCM Polarization Energy =               0.0000000000000000
    EFP Energy =                            0.0000000000000000
    Total Energy =                       -290.4857595806043946
    Molecular point group: c1
  Basis Set: CC-PVTZ
  Basis Set:

  -Total Gradient:
     Atom            X                  Y                   Z
    ------   -----------------  -----------------  -----------------
       1       -0.000000045160    -0.000000687472     0.000000278934
       2       -0.000000617442     0.000002528606    -0.000003906005
       3        0.000014529302    -0.000007108680     0.000007172205
       4       -0.000000413159    -0.000000903271     0.000000209417
       5       -0.000001121679     0.000000472697    -0.000000057217
       6       -0.000009696259     0.000014316943    -0.000033853104
       7       -0.000001371103    -0.000000571895    -0.000002197378
       8        0.000001501837     0.000000848451    -0.000002758848
       9        0.000026901255    -0.000019004412     0.000050422267
      10        0.000002306746    -0.000001943382     0.000001214014
      11        0.000012512206    -0.000005638827     0.000000885682
      12        0.000330293129     0.000896515966     0.004227846889
      13       -0.000001274222    -0.000012226126     0.000016189069
      14        0.002158389308     0.003402359868     0.001551513767
      15       -0.000630734598    -0.001260457331    -0.003825778223
      16       -0.000019384244     0.000010966594    -0.000024263700
      17       -0.000002984479    -0.000012926038     0.000017260125
      18       -0.001867994864    -0.002992640753    -0.001994535039
      19        0.000000529936    -0.000019866094     0.000009530086
      20        0.000017151037     0.000001965810     0.000012623552
      21       -0.000011335296     0.000001141499    -0.000001302831
      22       -0.000017142253     0.000002857848    -0.000006493661

  **** Optimization is complete! (in 5 steps) ****
    Final optimized geometry and variables:
    Molecular point group: c1

    Geometry (in Angstrom), charge = 0, multiplicity = 1:

    H            3.290496988328    -1.631746881297    -2.621503965168
    C            2.911251474213    -1.557338016430    -1.609191418169
    C            1.690021723415    -0.646733608886    -1.546500158848
    H            2.669463927359    -2.560206991517    -1.273313223721
    H            3.714575582921    -1.184378840173    -0.982633156109
    C            1.123770421325    -0.513900694917    -0.140428675649
    H            0.910890828283    -1.022634907238    -2.200310394312
    H            1.957201163676     0.339441309452    -1.918846855494
    N           -0.048560073245     0.333778828344    -0.118606566353
    H            0.836816958323    -1.495652850801     0.224310852783
    H            1.907156359829    -0.152333967736     0.532556515911
    C           -0.624796169422     0.521466737928     1.200148375230
    H            0.173082400729     1.222324175093    -0.516778820647
    C           -1.901594049035     1.369384681852     1.128402064242
    H           -0.867910876564    -0.468174382931     1.571680831823
    H            0.089330480040     0.962916670854     1.897565391081
    C           -3.173574613631     0.525346259362     1.093502486950
    H           -1.873437737833     1.961898871660     0.219974959518
    H           -1.943373060890     2.057182239474     1.965419246530
    H           -3.142513822774    -0.174393101421     0.266145920682
    H           -4.054855689118     1.145758271925     0.974904982906
    H           -3.290821654387    -0.044460615954     2.009330119148

  Mulliken Charges: (a.u.)
   Center  Symbol    Alpha    Beta     Spin     Total
       1     H     0.44771  0.44771  0.00000  0.10457
       2     C     3.15357  3.15357  0.00000 -0.30713
       3     C     3.08067  3.08067  0.00000 -0.16133
       4     H     0.45472  0.45472  0.00000  0.09055
       5     H     0.45612  0.45612  0.00000  0.08776
       6     C     3.02181  3.02181  0.00000 -0.04362
       7     H     0.44922  0.44922  0.00000  0.10156
       8     H     0.45958  0.45958  0.00000  0.08083
       9     N     3.64287  3.64287  0.00000 -0.28575
      10     H     0.45934  0.45934  0.00000  0.08133
      11     H     0.47496  0.47496  0.00000  0.05007
      12     C     3.03328  3.03328  0.00000 -0.06657
      13     H     0.44418  0.44418  0.00000  0.11163
      14     C     3.07999  3.07999  0.00000 -0.15998
      15     H     0.45968  0.45968  0.00000  0.08064
      16     H     0.46456  0.46456  0.00000  0.07088
      17     C     3.15011  3.15011  0.00000 -0.30023
      18     H     0.45857  0.45857  0.00000  0.08286
      19     H     0.45127  0.45127  0.00000  0.09745
      20     H     0.44988  0.44988  0.00000  0.10024
      21     H     0.45117  0.45117  0.00000  0.09766
      22     H     0.45672  0.45672  0.00000  0.08656

   Total alpha = 29.00000, Total beta = 29.00000, Total charge =  0.00000
