  ==> Input File <==

--------------------------------------------------------------------------
set {
	reference rhf
	basis 6-31G*
}

set_num_threads( 4 )
memory 2 gb

molecule MOL {
0 1

H	 -3.161837	 0.500524	 -0.000234
C	 -2.367097	 -0.232926	 -0.000000
O	 -1.158440	 0.455814	 -0.000122
H	 -2.468853	 -0.861886	 -0.882833
H	 -2.468942	 -0.861421	 0.883154
C	 -0.029776	 -0.365156	 0.000148
C	 0.641352	 -0.275393	 1.359630
H	 0.661095	 -0.053782	 -0.784481
H	 -0.315338	 -1.395974	 -0.213805
C	 1.893348	 -1.146519	 1.451966
H	 0.892302	 0.763255	 1.551717
H	 -0.077231	 -0.569589	 2.118436
H	 2.636288	 -0.852162	 0.715882
H	 2.351302	 -1.063656	 2.431893
H	 1.659987	 -2.194551	 1.285907

	symmetry c1
}
set optking {
	frozen_dihedral = ("
		8 6 3 2
	")
}

ee = optimize('scf')
oeprop('DIPOLE', 'QUADRUPOLE', 'MULLIKEN_CHARGES')
f=open( 'psi4out.xyz', 'w' )
f.write( "15  " )
f.write( str(ee) + "\n" )
f.write( MOL.save_string_xyz() )
f.close()
--------------------------------------------------------------------------

    Molecular point group: c1
  Charge       = 0
  Multiplicity = 1
  Basis Set: 6-31G*
  Basis Set:
  @DF-RHF Final Energy:  -232.13507348831340
    Total Energy =                       -232.1350734883134237
    Molecular point group: c1
  Basis Set: 6-31G*
  Basis Set:
  Basis Set: 6-31G*
  Basis Set:
  @DF-RHF Final Energy:  -232.13564363678813
    Total Energy =                       -232.1356436367881315
  Basis Set: 6-31G*
  Basis Set:
  Basis Set: 6-31G*
  Basis Set:
  @DF-RHF Final Energy:  -232.13576234447316
    Total Energy =                       -232.1357623444732781
  Basis Set: 6-31G*
  Basis Set:
  Basis Set: 6-31G*
  Basis Set:
  @DF-RHF Final Energy:  -232.13576406776838
    Total Energy =                       -232.1357640677682639
  Basis Set: 6-31G*
  Basis Set:
  Charge       = 0
  Multiplicity = 1
  Basis Set: 6-31G*
  Basis Set:

    Orbital Energies (a.u.)
    -----------------------

    Doubly Occupied:

       1A    -20.550234     2A    -11.265898     3A    -11.264744
       4A    -11.214637     5A    -11.213468     6A     -1.373377
       7A     -1.056103     8A     -0.956876     9A     -0.880156
      10A     -0.808029    11A     -0.668985    12A     -0.653121
      13A     -0.635894    14A     -0.598962    15A     -0.569337
      16A     -0.537105    17A     -0.508836    18A     -0.495355
      19A     -0.481839    20A     -0.461042    21A     -0.403968

  @DF-RHF Final Energy:  -232.13576423005125

   => Energetics <=

    Nuclear Repulsion Energy =            190.3942917138650444
    One-Electron Energy =                -691.8641776737842974
    Two-Electron Energy =                 269.3341217298680590
    DFT Exchange-Correlation Energy =       0.0000000000000000
    Empirical Dispersion Energy =           0.0000000000000000
    PCM Polarization Energy =               0.0000000000000000
    EFP Energy =                            0.0000000000000000
    Total Energy =                       -232.1357642300511657
    Molecular point group: c1
  Basis Set: 6-31G*
  Basis Set:

  -Total Gradient:
     Atom            X                  Y                   Z
    ------   -----------------  -----------------  -----------------
       1        0.000001696871    -0.000004136747     0.000001291666
       2        0.000015448276    -0.000035806950    -0.000894083155
       3       -0.000108438237    -0.000108791279     0.001125799141
       4       -0.000003904660    -0.000004294718     0.000001254979
       5        0.000000734547     0.000001292149    -0.000002634518
       6        0.000557501458     0.000866813321     0.000453011383
       7       -0.000014152309    -0.000014567339    -0.000019921790
       8       -0.000463559356    -0.000692324671    -0.000682692583
       9       -0.000000174879    -0.000013584362     0.000002970251
      10        0.000009952680     0.000019581837     0.000006825655
      11        0.000001204324    -0.000004229947     0.000005595643
      12       -0.000003831383     0.000000730785    -0.000004104289
      13       -0.000003959617    -0.000008762031    -0.000000673339
      14        0.000013742071    -0.000005491900     0.000002660250
      15       -0.000002259785     0.000003571850     0.000004700706

  **** Optimization is complete! (in 5 steps) ****
    Final optimized geometry and variables:
    Molecular point group: c1

    Geometry (in Angstrom), charge = 0, multiplicity = 1:

    H           -2.936069636206     0.861912132140    -0.579283352079
    C           -2.163165853204     0.105238745155    -0.576267141198
    O           -0.935779014578     0.762639511601    -0.573656735249
    H           -2.281239522883    -0.518205623092    -1.460104400089
    H           -2.291526503403    -0.518994012246     0.305953482792
    C            0.198016483084    -0.061333658993    -0.525430380674
    C            0.885952509454     0.033212235896     0.829428471970
    H            0.871786616548     0.256404945774    -1.315369881037
    H           -0.072052369771    -1.094264540312    -0.736791995456
    C            2.154790177324    -0.815392490779     0.902193867752
    H            1.120739641730     1.075645273559     1.021754823077
    H            0.186788630408    -0.275647971914     1.602357671828
    H            2.877954070795    -0.508662801852     0.151608136518
    H            2.630165062380    -0.723357036737     1.873038125974
    H            1.938040695084    -1.867956892891     0.740779179550

  Mulliken Charges: (a.u.)
   Center  Symbol    Alpha    Beta     Spin     Total
       1     H     0.41287  0.41287  0.00000  0.17426
       2     C     3.07927  3.07927  0.00000 -0.15854
       3     O     4.30862  4.30862  0.00000 -0.61723
       4     H     0.42929  0.42929  0.00000  0.14142
       5     H     0.43126  0.43126  0.00000  0.13748
       6     C     2.98682  2.98682  0.00000  0.02637
       7     C     3.15838  3.15838  0.00000 -0.31676
       8     H     0.42070  0.42070  0.00000  0.15859
       9     H     0.43213  0.43213  0.00000  0.13573
      10     C     3.24882  3.24882  0.00000 -0.49764
      11     H     0.41372  0.41372  0.00000  0.17255
      12     H     0.42093  0.42093  0.00000  0.15813
      13     H     0.42000  0.42000  0.00000  0.16001
      14     H     0.41557  0.41557  0.00000  0.16887
      15     H     0.42162  0.42162  0.00000  0.15676

   Total alpha = 21.00000, Total beta = 21.00000, Total charge = -0.00000
