  ==> Input File <==

--------------------------------------------------------------------------
set {
	reference rhf
	basis cc-pvtz
}

set_num_threads( 4 )
memory 2 gb

molecule MOL {
0 1

H	 -3.436473	 1.252944	 -1.023892
O	 -3.458596	 0.315260	 -0.960865
C	 -3.176635	 -0.080824	 0.355601
C	 -1.763371	 0.265266	 0.799691
H	 -3.321825	 -1.153438	 0.379502
H	 -3.895468	 0.357385	 1.043382
C	 -0.673390	 -0.426948	 -0.013392
H	 -1.631049	 1.344913	 0.747560
H	 -1.664587	 -0.001624	 1.849167
C	 0.737842	 -0.043159	 0.423759
H	 -0.806103	 -0.190518	 -1.063345
H	 -0.797221	 -1.503753	 0.074146
C	 1.824000	 -0.743224	 -0.390623
H	 0.850588	 1.033777	 0.343840
H	 0.868587	 -0.286314	 1.476203
C	 3.255957	 -0.453067	 0.062319
H	 1.718250	 -0.470599	 -1.438164
H	 1.658105	 -1.815850	 -0.339904
C	 3.749832	 0.958103	 -0.247246
H	 3.918738	 -1.165945	 -0.418620
H	 3.338302	 -0.637115	 1.130385
H	 3.673660	 1.172898	 -1.308443
H	 4.789427	 1.072719	 0.037967
H	 3.182355	 1.712507	 0.284213

	symmetry c1
}
set optking {
	frozen_dihedral = ("
		20 16 13 17
	")
}

ee = optimize('scf')
oeprop('DIPOLE', 'QUADRUPOLE', 'MULLIKEN_CHARGES')
f=open( 'psi4out.xyz', 'w' )
f.write( "24  " )
f.write( str(ee) + "\n" )
f.write( MOL.save_string_xyz() )
f.close()
--------------------------------------------------------------------------

    Molecular point group: c1
  Charge       = 0
  Multiplicity = 1
  Basis Set: CC-PVTZ
  Basis Set:
  @DF-RHF Final Energy:  -349.38032206880422
    Total Energy =                       -349.3803220688042757
    Molecular point group: c1
  Basis Set: CC-PVTZ
  Basis Set:
  Basis Set: CC-PVTZ
  Basis Set:
  @DF-RHF Final Energy:  -349.38032138694081
    Total Energy =                       -349.3803213869406932
  Basis Set: CC-PVTZ
  Basis Set:
  Basis Set: CC-PVTZ
  Basis Set:
  @DF-RHF Final Energy:  -349.38035567628782
    Total Energy =                       -349.3803556762878202
  Basis Set: CC-PVTZ
  Basis Set:
  Charge       = 0
  Multiplicity = 1
  Basis Set: CC-PVTZ
  Basis Set:

    Orbital Energies (a.u.)
    -----------------------

    Doubly Occupied:

       1A    -20.546274     2A    -11.265509     3A    -11.215172
       4A    -11.212024     5A    -11.210199     6A    -11.209404
       7A    -11.208932     8A    -11.205403     9A     -1.364124
      10A     -1.089813    11A     -1.049435    12A     -0.986881
      13A     -0.915912    14A     -0.850542    15A     -0.801269
      16A     -0.777792    17A     -0.681862    18A     -0.654609
      19A     -0.625596    20A     -0.621733    21A     -0.598496
      22A     -0.585366    23A     -0.559219    24A     -0.540923
      25A     -0.516044    26A     -0.511003    27A     -0.498801
      28A     -0.473324    29A     -0.468164    30A     -0.461087
      31A     -0.456670    32A     -0.451136    33A     -0.421178

  @DF-RHF Final Energy:  -349.38035574539640

   => Energetics <=

    Nuclear Repulsion Energy =            384.7358136188879598
    One-Electron Energy =               -1236.1645500086187894
    Two-Electron Energy =                 502.0483806443343155
    DFT Exchange-Correlation Energy =       0.0000000000000000
    Empirical Dispersion Energy =           0.0000000000000000
    PCM Polarization Energy =               0.0000000000000000
    EFP Energy =                            0.0000000000000000
    Total Energy =                       -349.3803557453965141
    Molecular point group: c1
  Basis Set: CC-PVTZ
  Basis Set:

  -Total Gradient:
     Atom            X                  Y                   Z
    ------   -----------------  -----------------  -----------------
       1       -0.000000549017     0.000001750744    -0.000003138095
       2       -0.000007699774     0.000007588776    -0.000001803815
       3        0.000008253180    -0.000004529436    -0.000009673055
       4        0.000002507882     0.000023941825    -0.000017872157
       5        0.000002798495    -0.000001377053     0.000004708540
       6        0.000002369125     0.000001226101     0.000000361370
       7       -0.000007149048    -0.000011143636     0.000007408739
       8        0.000001005351     0.000011046321     0.000009725489
       9        0.000002820928    -0.000007232795    -0.000010529220
      10        0.000009101439    -0.000026027213     0.000028908806
      11       -0.000003646203    -0.000014869555     0.000000093687
      12        0.000003604679    -0.000000732901     0.000007474129
      13        0.000276150914    -0.001062331680    -0.000145409489
      14       -0.000005398812     0.000004330995     0.000012388638
      15       -0.000002005140    -0.000004434878     0.000009162066
      16        0.000045999867     0.000834091589    -0.000762886490
      17       -0.000226942835     0.000768037269     0.000204559066
      18        0.000004465406     0.000013567390     0.000012322720
      19       -0.000002394637     0.000000643001    -0.000007393604
      20       -0.000085913411    -0.000523927303     0.000652914342
      21       -0.000008280112    -0.000004576906     0.000001626788
      22       -0.000004633787     0.000000318516     0.000005444561
      23       -0.000000076731    -0.000005381976    -0.000001587738
      24       -0.000004387769     0.000000022804     0.000003194718

  **** Optimization is complete! (in 4 steps) ****
    Final optimized geometry and variables:
    Molecular point group: c1

    Geometry (in Angstrom), charge = 0, multiplicity = 1:

    H           -3.424861064172     1.277865808628    -1.006482218814
    O           -3.453666934920     0.339981403332    -0.949697159468
    C           -3.179240908360    -0.066479022890     0.365113304123
    C           -1.765115366665     0.266678539261     0.816365191322
    H           -3.332136748054    -1.138171182274     0.381284700044
    H           -3.897482583624     0.372236802596     1.053199188531
    C           -0.677123883873    -0.426565783406     0.001508958631
    H           -1.625355650243     1.345793345035     0.772988351849
    H           -1.671554049457    -0.008900789454     1.864056304990
    C            0.735238356070    -0.056623235235     0.446790030485
    H           -0.804549348182    -0.180667510751    -1.046913983504
    H           -0.808883571797    -1.503186128438     0.079814999594
    C            1.820481369767    -0.759603229019    -0.367107318197
    H            0.856871404054     1.020074496831     0.374561716534
    H            0.859857774935    -0.307485353038     1.498035193471
    C            3.251804556091    -0.447150618266     0.074434872938
    H            1.704072097466    -0.495548021428    -1.415674944796
    H            1.662096454859    -1.832304935147    -0.302425518927
    C            3.718962459329     0.971510430048    -0.240826250710
    H            3.923940944938    -1.152583095367    -0.404353340448
    H            3.343130464275    -0.627425369656     1.142562939188
    H            3.649743402697     1.175974806968    -1.304379955963
    H            4.752458030153     1.111744861053     0.054931760919
    H            3.128608578833     1.717341265954     0.277974181014

  Mulliken Charges: (a.u.)
   Center  Symbol    Alpha    Beta     Spin     Total
       1     H     0.39530  0.39530  0.00000  0.20940
       2     O     4.20370  4.20370  0.00000 -0.40740
       3     C     2.97768  2.97768  0.00000  0.04464
       4     C     3.10174  3.10174  0.00000 -0.20348
       5     H     0.45891  0.45891  0.00000  0.08218
       6     H     0.46030  0.46030  0.00000  0.07939
       7     C     3.08693  3.08693  0.00000 -0.17386
       8     H     0.45934  0.45934  0.00000  0.08131
       9     H     0.45337  0.45337  0.00000  0.09325
      10     C     3.09116  3.09116  0.00000 -0.18231
      11     H     0.44637  0.44637  0.00000  0.10726
      12     H     0.45514  0.45514  0.00000  0.08972
      13     C     3.09414  3.09414  0.00000 -0.18828
      14     H     0.45384  0.45384  0.00000  0.09232
      15     H     0.45623  0.45623  0.00000  0.08754
      16     C     3.09024  3.09024  0.00000 -0.18048
      17     H     0.45423  0.45423  0.00000  0.09155
      18     H     0.44936  0.44936  0.00000  0.10128
      19     C     3.15119  3.15119  0.00000 -0.30237
      20     H     0.44836  0.44836  0.00000  0.10328
      21     H     0.45583  0.45583  0.00000  0.08835
      22     H     0.45496  0.45496  0.00000  0.09007
      23     H     0.44694  0.44694  0.00000  0.10611
      24     H     0.45474  0.45474  0.00000  0.09052

   Total alpha = 33.00000, Total beta = 33.00000, Total charge = -0.00000
