                              Psi4 1.0.54 Driver

  ==> Input File <==

--------------------------------------------------------------------------
set {
	reference rhf
	basis cc-pvtz
}

set_num_threads( 4 )
memory 2 gb

molecule MOL {
0 1

H	 -2.644180	 -0.653737	 1.272255
C	 -2.092774	 -0.380414	 0.391915
O	 -0.808934	 -0.154049	 0.752536
F	 -2.163230	 -1.351640	 -0.507133
F	 -2.627232	 0.691260	 -0.169301
C	 0.085006	 0.250800	 -0.215074
C	 0.833243	 1.463890	 0.332494
Cl	 -0.749307	 0.678608	 -1.720544
H	 0.808503	 -0.509029	 -0.453524
F	 1.712819	 1.890787	 -0.537637
F	 1.477944	 1.112862	 1.419901
F	 0.029679	 2.447007	 0.632518

	symmetry c1
}
set optking {
	frozen_dihedral = ("
		9 6 3 2
	")
}

ee,wfn = optimize('scf', return_wfn=True)
oeprop( wfn, 'DIPOLE', 'QUADRUPOLE', 'MULLIKEN_CHARGES')
f=open( 'psi4out.xyz', 'w' )
f.write( "12  " )
f.write( str(ee) + "\n" )
f.write( MOL.save_string_xyz() )
f.close()
--------------------------------------------------------------------------

    Molecular point group: c1
  Charge       = 0
  Multiplicity = 1
  Basis Set: CC-PVTZ
  Basis Set:
  @DF-RHF Final Energy: -1146.59161738292732
    Total Energy =                      -1146.5916173829273248
    Molecular point group: c1
  Basis Set: CC-PVTZ
  Basis Set:
  Basis Set: CC-PVTZ
  Basis Set:
  @DF-RHF Final Energy: -1146.60501076702326
    Total Energy =                      -1146.6050107670228044
  Basis Set: CC-PVTZ
  Basis Set:
  Basis Set: CC-PVTZ
  Basis Set:
  @DF-RHF Final Energy: -1146.60887633396464
    Total Energy =                      -1146.6088763339644174
  Basis Set: CC-PVTZ
  Basis Set:
  Basis Set: CC-PVTZ
  Basis Set:
  @DF-RHF Final Energy: -1146.61031749336325
    Total Energy =                      -1146.6103174933634818
  Basis Set: CC-PVTZ
  Basis Set:
  @DF-RHF Final Energy: -1146.61051830788711
    Total Energy =                      -1146.6105183078871050
  @DF-RHF Final Energy: -1146.61051660533280
    Total Energy =                      -1146.6105166053332596
  @DF-RHF Final Energy: -1146.61053863186726
    Total Energy =                      -1146.6105386318665751
  Basis Set: CC-PVTZ
  Basis Set:
  @DF-RHF Final Energy: -1146.61055012615907
    Total Energy =                      -1146.6105501261599784
  Basis Set: CC-PVTZ
  Basis Set:
  Basis Set: CC-PVTZ
  Basis Set:
  @DF-RHF Final Energy: -1146.61055215706665
    Total Energy =                      -1146.6105521570671044
  Basis Set: CC-PVTZ
  Basis Set:
  Basis Set: CC-PVTZ
  Basis Set:
  @DF-RHF Final Energy: -1146.61055344908709
    Total Energy =                      -1146.6105534490880018
  Basis Set: CC-PVTZ
  Basis Set:
  Charge       = 0
  Multiplicity = 1
  Basis Set: CC-PVTZ
  Basis Set:

    Orbital Energies (a.u.)
    -----------------------

    Doubly Occupied:

       1A   -104.861726     2A    -26.353869     3A    -26.352273
       4A    -26.352224     5A    -26.335216     6A    -26.333057
       7A    -20.634401     8A    -11.518015     9A    -11.479641
      10A    -11.402662    11A    -10.587242    12A     -8.054077
      13A     -8.052027    14A     -8.051929    15A     -1.766535
      16A     -1.715486    17A     -1.661781    18A     -1.659753
      19A     -1.637547    20A     -1.476856    21A     -1.181791
      22A     -1.059139    23A     -0.988024    24A     -0.919361
      25A     -0.857838    26A     -0.854427    27A     -0.847377
      28A     -0.827339    29A     -0.811811    30A     -0.780313
      31A     -0.736659    32A     -0.729453    33A     -0.710969
      34A     -0.695780    35A     -0.684854    36A     -0.679592
      37A     -0.663505    38A     -0.662074    39A     -0.654442
      40A     -0.636691    41A     -0.594088    42A     -0.551250
      43A     -0.540515    44A     -0.480249    45A     -0.468446

  @DF-RHF Final Energy: -1146.61055357304463

   => Energetics <=

    Nuclear Repulsion Energy =            745.3451710656581781
    One-Electron Energy =               -3074.1068394611020267
    Two-Electron Energy =                1182.1511148223985401
    DFT Exchange-Correlation Energy =       0.0000000000000000
    Empirical Dispersion Energy =           0.0000000000000000
    PCM Polarization Energy =               0.0000000000000000
    EFP Energy =                            0.0000000000000000
    Total Energy =                      -1146.6105535730453084
    Molecular point group: c1
  Basis Set: CC-PVTZ
  Basis Set:

  -Total Gradient:
     Atom            X                  Y                   Z
    ------   -----------------  -----------------  -----------------
       1        0.000015026945     0.000009250605     0.000008077654
       2       -0.000344988396     0.001613737382     0.000296027492
       3        0.000805763749    -0.002399153761    -0.000245988455
       4        0.000015393538     0.000002908824     0.000003713673
       5        0.000018513664     0.000003526458     0.000005939681
       6       -0.001664797581     0.000145632166    -0.001227075648
       7        0.000009619595     0.000010036101    -0.000032808596
       8       -0.000012874082     0.000014398523    -0.000023782785
       9        0.001186034500     0.000620772913     0.001190522854
      10       -0.000033237642    -0.000004199919     0.000007976695
      11        0.000004875902    -0.000015436095     0.000027976616
      12        0.000000669805    -0.000001473197    -0.000010579248

  **** Optimization is complete! (in 11 steps) ****
    Final optimized geometry and variables:
    Molecular point group: c1

    Geometry (in Angstrom), charge = 0, multiplicity = 1:

    H           -2.015155214498    -1.363153855955     1.703379725401
    C           -1.684569592447    -1.023787753301     0.738337120036
    O           -0.354796610572    -0.799283117756     0.837501992278
    F           -1.952466788052    -1.946407166266    -0.171446840769
    F           -2.346651080636     0.067683669832     0.405631864643
    C            0.505833474168    -0.440312425453    -0.188460230504
    C            1.371153164031     0.696603577595     0.357469540861
    CL          -0.225495938732     0.053699819197    -1.720515594448
    H            1.158196846872    -1.269319641368    -0.403305123466
    F            2.301617983604     1.017715526889    -0.506073721934
    F            1.965317229446     0.297848137114     1.457357654181
    F            0.669864420668     1.761664558913     0.634172315802

  Mulliken Charges: (a.u.)
   Center  Symbol    Alpha    Beta     Spin     Total
       1     H     0.45147  0.45147  0.00000  0.09706
       2     C     2.73843  2.73843  0.00000  0.52314
       3     O     4.16654  4.16654  0.00000 -0.33307
       4     F     4.61704  4.61704  0.00000 -0.23408
       5     F     4.61241  4.61241  0.00000 -0.22482
       6     C     2.94351  2.94351  0.00000  0.11297
       7     C     2.67300  2.67300  0.00000  0.65401
       8    CL     8.56536  8.56536  0.00000 -0.13072
       9     H     0.42346  0.42346  0.00000  0.15308
      10     F     4.60303  4.60303  0.00000 -0.20605
      11     F     4.60501  4.60501  0.00000 -0.21001
      12     F     4.60075  4.60075  0.00000 -0.20150

   Total alpha = 45.00000, Total beta = 45.00000, Total charge = -0.00000

*** Psi4 exiting successfully. Buy a developer a beer!
