  ==> Input File <==

--------------------------------------------------------------------------
set {
	reference rhf
	basis cc-pvtz
}

set_num_threads( 4 )
memory 2 gb

molecule MOL {
0 1

O	 -2.440701	 -0.934798	 -0.415053
C	 -1.922978	 0.063265	 -0.045005
C	 -2.632749	 1.372204	 0.158357
O	 -0.637375	 0.157174	 0.243149
H	 -2.187724	 2.129143	 -0.474664
H	 -3.677681	 1.257276	 -0.079438
H	 -2.516788	 1.693160	 1.185542
C	 0.162530	 -1.009518	 0.097799
C	 1.587210	 -0.664190	 0.477086
H	 0.096803	 -1.356267	 -0.924704
H	 -0.233803	 -1.785900	 0.736810
C	 2.256770	 0.342732	 -0.454344
H	 2.154716	 -1.590834	 0.479041
H	 1.598751	 -0.289614	 1.496104
C	 3.568495	 0.881203	 0.106942
H	 2.442111	 -0.129529	 -1.415446
H	 1.577458	 1.166335	 -0.641584
H	 4.023977	 1.589648	 -0.574987
H	 4.281501	 0.081225	 0.277385
H	 3.410079	 1.388350	 1.052839

	symmetry c1
}
set optking {
	frozen_dihedral = ("
		16 12 9 8
	")
}

ee = optimize('scf')
oeprop('DIPOLE', 'QUADRUPOLE', 'MULLIKEN_CHARGES')
f=open( 'psi4out.xyz', 'w' )
f.write( "20  " )
f.write( str(ee) + "\n" )
f.write( MOL.save_string_xyz() )
f.close()
--------------------------------------------------------------------------

    Molecular point group: c1
  Charge       = 0
  Multiplicity = 1
  Basis Set: CC-PVTZ
  Basis Set:
  @DF-RHF Final Energy:  -384.08701381829212
    Total Energy =                       -384.0870138182923483
    Molecular point group: c1
  Basis Set: CC-PVTZ
  Basis Set:
  Basis Set: CC-PVTZ
  Basis Set:
  @DF-RHF Final Energy:  -384.08707047638234
    Total Energy =                       -384.0870704763825643
  Basis Set: CC-PVTZ
  Basis Set:
  Basis Set: CC-PVTZ
  Basis Set:
  @DF-RHF Final Energy:  -384.08691025012143
    Total Energy =                       -384.0869102501219459
  Basis Set: CC-PVTZ
  Basis Set:
  Basis Set: CC-PVTZ
  Basis Set:
  @DF-RHF Final Energy:  -384.08709021636673
    Total Energy =                       -384.0870902163666187
  Basis Set: CC-PVTZ
  Basis Set:
  Charge       = 0
  Multiplicity = 1
  Basis Set: CC-PVTZ
  Basis Set:

    Orbital Energies (a.u.)
    -----------------------

    Doubly Occupied:

       1A    -20.594577     2A    -20.532768     3A    -11.366823
       4A    -11.280212     5A    -11.231815     6A    -11.223467
       7A    -11.218774     8A    -11.211366     9A     -1.471256
      10A     -1.365404    11A     -1.086952    12A     -1.029324
      13A     -0.982194    14A     -0.881143    15A     -0.811635
      16A     -0.777727    17A     -0.692860    18A     -0.686228
      19A     -0.670284    20A     -0.632277    21A     -0.603442
      22A     -0.593803    23A     -0.573562    24A     -0.552231
      25A     -0.543060    26A     -0.534007    27A     -0.514065
      28A     -0.483547    29A     -0.475576    30A     -0.473769
      31A     -0.451612    32A     -0.442247

  @DF-RHF Final Energy:  -384.08709128593699

   => Energetics <=

    Nuclear Repulsion Energy =            386.0224638389983625
    One-Electron Energy =               -1288.2430935382662938
    Two-Electron Energy =                 518.1335384133310527
    DFT Exchange-Correlation Energy =       0.0000000000000000
    Empirical Dispersion Energy =           0.0000000000000000
    PCM Polarization Energy =               0.0000000000000000
    EFP Energy =                            0.0000000000000000
    Total Energy =                       -384.0870912859368218
    Molecular point group: c1
  Basis Set: CC-PVTZ
  Basis Set:

  -Total Gradient:
     Atom            X                  Y                   Z
    ------   -----------------  -----------------  -----------------
       1       -0.000002913173     0.000001397027     0.000000403569
       2        0.000004576085    -0.000001178397     0.000009107112
       3        0.000002400556     0.000003848005    -0.000016522504
       4        0.000024592326    -0.000008359935    -0.000022052345
       5        0.000000473820    -0.000000003733     0.000006214768
       6        0.000000398583    -0.000001123748     0.000000895797
       7       -0.000001746061    -0.000003456091     0.000004499172
       8       -0.000579757697     0.001250803866     0.000956836008
       9        0.001243877537    -0.001907301729    -0.001163246125
      10       -0.000002155915     0.000003996122    -0.000005006164
      11        0.000005029515    -0.000002675376    -0.000002163051
      12       -0.002676604124     0.001311334766    -0.000509367829
      13        0.000001428807     0.000000372324     0.000003366930
      14        0.000003034527     0.000004304293     0.000002161855
      15       -0.000013517911    -0.000003845298    -0.000009766132
      16        0.001990346584    -0.000658794090     0.000734567803
      17       -0.000014834824     0.000005493959     0.000002285383
      18        0.000006120401     0.000001273636     0.000001302681
      19        0.000004687175     0.000001103025     0.000003345745
      20        0.000004563792     0.000002811371     0.000003137327

  **** Optimization is complete! (in 5 steps) ****
    Final optimized geometry and variables:
    Molecular point group: c1

    Geometry (in Angstrom), charge = 0, multiplicity = 1:

    O           -2.419183384711    -0.963357616426    -0.457907627990
    C           -1.908693517249     0.030763755940    -0.068003241167
    C           -2.625381098458     1.333319448116     0.149682872069
    O           -0.625518636175     0.125419363172     0.230744111446
    H           -2.179821627789     2.100942169345    -0.469908327486
    H           -3.668338909449     1.217317952888    -0.096142530586
    H           -2.516875824172     1.639934838198     1.181984815044
    C            0.179771842492    -1.035855641318     0.074468989326
    C            1.601410201776    -0.684696679551     0.461639273110
    H            0.116328096400    -1.372858945046    -0.951616778180
    H           -0.213639566593    -1.820487553762     0.705038226048
    C            2.276157734997     0.315833852389    -0.474984055777
    H            2.176048616450    -1.605670284489     0.490333127987
    H            1.591731204440    -0.291926997719     1.473886017775
    C            3.595713432715     0.840644711560     0.082826149538
    H            2.468677874963    -0.165868888576    -1.429668095501
    H            1.607300372214     1.146624679459    -0.664613061031
    H            4.070385553029     1.523164888758    -0.612409893738
    H            4.290772261924     0.029905724003     0.275933861850
    H            3.441918691927     1.372035140494     1.015894891570

  Mulliken Charges: (a.u.)
   Center  Symbol    Alpha    Beta     Spin     Total
       1     O     4.19713  4.19713  0.00000 -0.39426
       2     C     2.80906  2.80906  0.00000  0.38187
       3     C     3.13833  3.13833  0.00000 -0.27667
       4     O     4.15356  4.15356  0.00000 -0.30712
       5     H     0.44619  0.44619  0.00000  0.10761
       6     H     0.43778  0.43778  0.00000  0.12444
       7     H     0.44569  0.44569  0.00000  0.10862
       8     C     2.99200  2.99200  0.00000  0.01600
       9     C     3.08464  3.08464  0.00000 -0.16928
      10     H     0.45135  0.45135  0.00000  0.09731
      11     H     0.44445  0.44445  0.00000  0.11109
      12     C     3.08694  3.08694  0.00000 -0.17388
      13     H     0.45000  0.45000  0.00000  0.10000
      14     H     0.45338  0.45338  0.00000  0.09323
      15     C     3.14994  3.14994  0.00000 -0.29989
      16     H     0.45425  0.45425  0.00000  0.09151
      17     H     0.44795  0.44795  0.00000  0.10410
      18     H     0.44767  0.44767  0.00000  0.10466
      19     H     0.45551  0.45551  0.00000  0.08899
      20     H     0.45418  0.45418  0.00000  0.09165

   Total alpha = 32.00000, Total beta = 32.00000, Total charge = -0.00000
