  ==> Input File <==

--------------------------------------------------------------------------
set {
	reference rhf
	basis cc-pvtz
}

set_num_threads( 4 )
memory 2 gb

molecule MOL {
0 1

H	 -2.434207	 1.260127	 2.169105
C	 -2.080456	 0.238290	 2.052519
O	 -0.807949	 0.200967	 1.498557
H	 -2.030705	 -0.225577	 3.026808
H	 -2.798535	 -0.306619	 1.442338
C	 -0.718530	 0.758693	 0.228682
C	 0.718529	 0.758687	 -0.228709
H	 -1.314214	 0.182569	 -0.479281
H	 -1.093495	 1.779883	 0.229481
O	 1.401606	 -0.295166	 0.366636
H	 0.748705	 0.673477	 -1.312803
H	 1.176496	 1.708671	 0.046552
C	 2.714315	 -0.441627	 -0.061017
H	 2.765292	 -0.641548	 -1.128869
H	 3.305661	 0.447341	 0.150952
H	 3.143725	 -1.278506	 0.470147

	symmetry c1
}
set optking {
	frozen_dihedral = ("
		3 6 7 11
	")
}

ee = optimize('scf')
oeprop('DIPOLE', 'QUADRUPOLE', 'MULLIKEN_CHARGES')
f=open( 'psi4out.xyz', 'w' )
f.write( "16  " )
f.write( str(ee) + "\n" )
f.write( MOL.save_string_xyz() )
f.close()
--------------------------------------------------------------------------

    Molecular point group: c1
  Charge       = 0
  Multiplicity = 1
  Basis Set: CC-PVTZ
  Basis Set:
  @DF-RHF Final Energy:  -307.08850364234104
    Total Energy =                       -307.0885036423408678
    Molecular point group: c1
  Basis Set: CC-PVTZ
  Basis Set:
  Basis Set: CC-PVTZ
  Basis Set:
  @DF-RHF Final Energy:  -307.08934669322366
    Total Energy =                       -307.0893466932236606
  Basis Set: CC-PVTZ
  Basis Set:
  Basis Set: CC-PVTZ
  Basis Set:
  @DF-RHF Final Energy:  -307.08978728434209
    Total Energy =                       -307.0897872843422078
  Basis Set: CC-PVTZ
  Basis Set:
  Basis Set: CC-PVTZ
  Basis Set:
  @DF-RHF Final Energy:  -307.08979611176301
    Total Energy =                       -307.0897961117630075
  Basis Set: CC-PVTZ
  Basis Set:
  Charge       = 0
  Multiplicity = 1
  Basis Set: CC-PVTZ
  Basis Set:

    Orbital Energies (a.u.)
    -----------------------

    Doubly Occupied:

       1A    -20.546029     2A    -20.544782     3A    -11.269556
       4A    -11.268928     5A    -11.260684     6A    -11.260179
       7A     -1.392379     8A     -1.371553     9A     -1.027701
      10A     -0.934525    11A     -0.896159    12A     -0.819616
      13A     -0.690649    14A     -0.676194    15A     -0.659955
      16A     -0.645348    17A     -0.619990    18A     -0.593481
      19A     -0.570791    20A     -0.521973    21A     -0.508205
      22A     -0.472113    23A     -0.468878    24A     -0.422439
      25A     -0.407179

  @DF-RHF Final Energy:  -307.08979666704454

   => Energetics <=

    Nuclear Repulsion Energy =            260.2080479758483307
    One-Electron Energy =                -934.8971164559945919
    Two-Electron Energy =                 367.5992718131015522
    DFT Exchange-Correlation Energy =       0.0000000000000000
    Empirical Dispersion Energy =           0.0000000000000000
    PCM Polarization Energy =               0.0000000000000000
    EFP Energy =                            0.0000000000000000
    Total Energy =                       -307.0897966670447090
    Molecular point group: c1
  Basis Set: CC-PVTZ
  Basis Set:

  -Total Gradient:
     Atom            X                  Y                   Z
    ------   -----------------  -----------------  -----------------
       1        0.000003994995     0.000000145110     0.000002268159
       2        0.000004683555     0.000005738150    -0.000022000221
       3       -0.000944578067    -0.006509976689    -0.002615966487
       4        0.000006911990    -0.000001990027    -0.000000826376
       5       -0.000007345071    -0.000005157460    -0.000000103707
       6        0.001294004882     0.006735815472     0.003674204415
       7       -0.000527634245     0.008529165793    -0.002005641712
       8        0.000006390703    -0.000000929037     0.000002088825
       9        0.000013231788    -0.000012292239     0.000030586127
      10       -0.000069972342     0.000049918868    -0.000041532898
      11        0.000233345571    -0.008805866467     0.000997869188
      12       -0.000022039099     0.000015692765    -0.000015525580
      13        0.000031994571    -0.000008990046    -0.000020183124
      14       -0.000002507656    -0.000000383609     0.000005326391
      15       -0.000006204632     0.000003868581     0.000005063377
      16       -0.000014276939     0.000005240835     0.000004373622

  **** Optimization is complete! (in 5 steps) ****
    Final optimized geometry and variables:
    Molecular point group: c1

    Geometry (in Angstrom), charge = 0, multiplicity = 1:

    H           -2.740092790402     1.044713514199     1.457504769559
    C           -2.320122061425     0.042440532242     1.395774420965
    O           -1.023919551339     0.058762646281     0.900412705744
    H           -2.287904169703    -0.382510254728     2.388278157146
    H           -2.975642980678    -0.566070971412     0.775784658804
    C           -0.919125714391     0.565497783892    -0.384780567431
    C            0.528613808054     0.549762230947    -0.867657098010
    H           -1.524904184678    -0.040452477527    -1.057584378741
    H           -1.298527220974     1.585192120457    -0.439970918197
    O            1.205224419234    -0.535175320097    -0.322730863289
    H            0.518805112687     0.426224654348    -1.949743338987
    H            1.035666883485     1.477281707601    -0.612731406245
    C            2.521769870578    -0.647120616809    -0.745542339651
    H            2.587807900849    -0.780401243047    -1.824119682006
    H            3.105274842355     0.230223975136    -0.473197264821
    H            2.950849233530    -1.512573926477    -0.262091927090

  Mulliken Charges: (a.u.)
   Center  Symbol    Alpha    Beta     Spin     Total
       1     H     0.47329  0.47329  0.00000  0.05342
       2     C     3.03109  3.03109  0.00000 -0.06218
       3     O     4.15957  4.15957  0.00000 -0.31915
       4     H     0.44563  0.44563  0.00000  0.10874
       5     H     0.47270  0.47270  0.00000  0.05460
       6     C     2.96371  2.96371  0.00000  0.07258
       7     C     2.96527  2.96527  0.00000  0.06946
       8     H     0.47657  0.47657  0.00000  0.04685
       9     H     0.47692  0.47692  0.00000  0.04616
      10     O     4.16102  4.16102  0.00000 -0.32203
      11     H     0.47705  0.47705  0.00000  0.04590
      12     H     0.47340  0.47340  0.00000  0.05320
      13     C     3.03088  3.03088  0.00000 -0.06175
      14     H     0.47435  0.47435  0.00000  0.05130
      15     H     0.47273  0.47273  0.00000  0.05454
      16     H     0.44582  0.44582  0.00000  0.10836

   Total alpha = 25.00000, Total beta = 25.00000, Total charge = -0.00000
