  ==> Input File <==

--------------------------------------------------------------------------
set {
	reference rhf
	basis 6-31G*
}

set_num_threads( 4 )
memory 2 gb

molecule MOL {
0 1

H	 2.503300	 -0.053599	 1.249274
C	 1.951159	 -0.223429	 0.317018
C	 0.692068	 0.589600	 0.160137
O	 2.356283	 -1.003275	 -0.482885
C	 -0.558097	 -0.297372	 0.091132
H	 0.791645	 1.202255	 -0.728243
H	 0.616171	 1.253469	 1.020572
C	 -1.850991	 0.512573	 -0.019058
H	 -0.476753	 -0.965681	 -0.762987
H	 -0.604799	 -0.930658	 0.975228
C	 -3.096943	 -0.368295	 -0.099594
H	 -1.800724	 1.150330	 -0.898172
H	 -1.931651	 1.177355	 0.838044
H	 -3.060452	 -1.020287	 -0.967456
H	 -3.996858	 0.233488	 -0.175704
H	 -3.191959	 -0.995686	 0.782074

	symmetry c1
}
set optking {
	frozen_dihedral = ("
		4 2 3 6
	")
}

ee = optimize('scf')
oeprop('DIPOLE', 'QUADRUPOLE', 'MULLIKEN_CHARGES')
f=open( 'psi4out.xyz', 'w' )
f.write( "16  " )
f.write( str(ee) + "\n" )
f.write( MOL.save_string_xyz() )
f.close()
--------------------------------------------------------------------------

    Molecular point group: c1
  Charge       = 0
  Multiplicity = 1
  Basis Set: 6-31G*
  Basis Set:
  @DF-RHF Final Energy:  -270.01801731066041
    Total Energy =                       -270.0180173106602979
    Molecular point group: c1
  Basis Set: 6-31G*
  Basis Set:
  Basis Set: 6-31G*
  Basis Set:
  @DF-RHF Final Energy:  -270.01826712491879
    Total Energy =                       -270.0182671249189070
  Basis Set: 6-31G*
  Basis Set:
  Basis Set: 6-31G*
  Basis Set:
  @DF-RHF Final Energy:  -270.01847648086607
    Total Energy =                       -270.0184764808661271
  Basis Set: 6-31G*
  Basis Set:
  Basis Set: 6-31G*
  Basis Set:
  @DF-RHF Final Energy:  -270.01851181214772
    Total Energy =                       -270.0185118121477217
  Basis Set: 6-31G*
  Basis Set:
  Basis Set: 6-31G*
  Basis Set:
  @DF-RHF Final Energy:  -270.01852116881747
    Total Energy =                       -270.0185211688174718
  Basis Set: 6-31G*
  Basis Set:
  Basis Set: 6-31G*
  Basis Set:
  @DF-RHF Final Energy:  -270.01852217113264
    Total Energy =                       -270.0185221711327017
  Basis Set: 6-31G*
  Basis Set:
  Charge       = 0
  Multiplicity = 1
  Basis Set: 6-31G*
  Basis Set:

    Orbital Energies (a.u.)
    -----------------------

    Doubly Occupied:

       1A    -20.562642     2A    -11.327592     3A    -11.235127
       4A    -11.229620     5A    -11.225027     6A    -11.214755
       7A     -1.403007     8A     -1.090719     9A     -1.014691
      10A     -0.905756    11A     -0.813015    12A     -0.781683
      13A     -0.681378    14A     -0.646232    15A     -0.627775
      16A     -0.600345    17A     -0.579066    18A     -0.547194
      19A     -0.526573    20A     -0.505353    21A     -0.482706
      22A     -0.478412    23A     -0.473157    24A     -0.408620

  @DF-RHF Final Energy:  -270.01852229839574

   => Energetics <=

    Nuclear Repulsion Energy =            231.0069828578043882
    One-Electron Energy =                -823.3301189463280707
    Two-Electron Energy =                 322.3046137901282009
    DFT Exchange-Correlation Energy =       0.0000000000000000
    Empirical Dispersion Energy =           0.0000000000000000
    PCM Polarization Energy =               0.0000000000000000
    EFP Energy =                            0.0000000000000000
    Total Energy =                       -270.0185222983955100
    Molecular point group: c1
  Basis Set: 6-31G*
  Basis Set:

  -Total Gradient:
     Atom            X                  Y                   Z
    ------   -----------------  -----------------  -----------------
       1       -0.000001789123     0.000023454929     0.000000548480
       2       -0.000391323909    -0.000450876597     0.000193617212
       3        0.000283638839     0.000453864366     0.000110073361
       4        0.000232776215     0.000244524884    -0.000184496328
       5        0.000033179731     0.000008102064     0.000082015742
       6       -0.000143668713    -0.000265030287    -0.000162741775
       7       -0.000010719021     0.000001280345     0.000027670754
       8        0.000010002597     0.000019611635    -0.000036700558
       9       -0.000007193846    -0.000011771399    -0.000006964019
      10        0.000000212706    -0.000023272799    -0.000024079275
      11        0.000000148559    -0.000005381410     0.000016461289
      12       -0.000015350349     0.000007399996    -0.000007604224
      13        0.000010736141    -0.000002162765    -0.000010410423
      14       -0.000002329666     0.000005080015    -0.000001085932
      15        0.000000538261     0.000000655948     0.000006172828
      16        0.000001141572    -0.000005478924    -0.000002477131

  **** Optimization is complete! (in 7 steps) ****
    Final optimized geometry and variables:
    Molecular point group: c1

    Geometry (in Angstrom), charge = 0, multiplicity = 1:

    H            2.677702066352     0.057371286632     1.207391491056
    C            2.058971680421    -0.082399220559     0.314708186904
    C            0.789228722630     0.736119599674     0.229169869390
    O            2.397058964318    -0.849619526759    -0.528306442728
    C           -0.458698371005    -0.153372061337     0.140262721675
    H            0.859525118495     1.351289725424    -0.664193083518
    H            0.724185387570     1.403233298503     1.083457274384
    C           -1.747709849133     0.654892268227    -0.012036808876
    H           -0.341854696947    -0.828605105188    -0.700851066934
    H           -0.525057740050    -0.774664916730     1.031154611593
    C           -2.991566681798    -0.228848981590    -0.096035113193
    H           -1.681235054320     1.271581576851    -0.905581185423
    H           -1.847356415248     1.340581459586     0.826665443325
    H           -2.936039909139    -0.903074715482    -0.945584381851
    H           -3.890244260575     0.369719815379    -0.206116111290
    H           -3.104327359166    -0.833740109399     0.799110460063

  Mulliken Charges: (a.u.)
   Center  Symbol    Alpha    Beta     Spin     Total
       1     H     0.42646  0.42646  0.00000  0.14707
       2     C     2.84381  2.84381  0.00000  0.31239
       3     C     3.20198  3.20198  0.00000 -0.40395
       4     O     4.23681  4.23681  0.00000 -0.47363
       5     C     3.15751  3.15751  0.00000 -0.31501
       6     H     0.40091  0.40091  0.00000  0.19818
       7     H     0.41618  0.41618  0.00000  0.16763
       8     C     3.15281  3.15281  0.00000 -0.30562
       9     H     0.40433  0.40433  0.00000  0.19133
      10     H     0.41929  0.41929  0.00000  0.16142
      11     C     3.24026  3.24026  0.00000 -0.48052
      12     H     0.42031  0.42031  0.00000  0.15939
      13     H     0.42238  0.42238  0.00000  0.15523
      14     H     0.41871  0.41871  0.00000  0.16257
      15     H     0.41761  0.41761  0.00000  0.16479
      16     H     0.42063  0.42063  0.00000  0.15873

   Total alpha = 24.00000, Total beta = 24.00000, Total charge =  0.00000
