  ==> Input File <==

--------------------------------------------------------------------------
set {
	reference rhf
	basis cc-pvtz
}

set_num_threads( 4 )
memory 2 gb

molecule MOL {
0 1

H	 -2.644180	 -0.653737	 1.272255
C	 -2.092774	 -0.380414	 0.391915
O	 -0.808934	 -0.154049	 0.752536
F	 -2.163230	 -1.351640	 -0.507133
F	 -2.627232	 0.691260	 -0.169301
C	 0.085006	 0.250800	 -0.215074
C	 1.370439	 -0.548013	 -0.012993
Cl	 0.421658	 1.987697	 -0.091007
H	 -0.272219	 0.063284	 -1.212508
F	 1.617042	 -0.704147	 1.262873
F	 2.372453	 0.114851	 -0.540149
F	 1.316169	 -1.723727	 -0.576024

	symmetry c1
}
set optking {
	frozen_dihedral = ("
		10 7 6 9
	")
}

ee = optimize('scf')
oeprop('DIPOLE', 'QUADRUPOLE', 'MULLIKEN_CHARGES')
f=open( 'psi4out.xyz', 'w' )
f.write( "12  " )
f.write( str(ee) + "\n" )
f.write( MOL.save_string_xyz() )
f.close()
--------------------------------------------------------------------------

    Molecular point group: c1
  Charge       = 0
  Multiplicity = 1
  Basis Set: CC-PVTZ
  Basis Set:
  @DF-RHF Final Energy: -1146.61567237615100
    Total Energy =                      -1146.6156723761516787
    Molecular point group: c1
  Basis Set: CC-PVTZ
  Basis Set:
  Basis Set: CC-PVTZ
  Basis Set:
  @DF-RHF Final Energy: -1146.61722490315469
    Total Energy =                      -1146.6172249031549200
  Basis Set: CC-PVTZ
  Basis Set:
  Basis Set: CC-PVTZ
  Basis Set:
  @DF-RHF Final Energy: -1146.61811238312112
    Total Energy =                      -1146.6181123831211153
  Basis Set: CC-PVTZ
  Basis Set:
  Basis Set: CC-PVTZ
  Basis Set:
  @DF-RHF Final Energy: -1146.61818339463275
    Total Energy =                      -1146.6181833946325241
  Basis Set: CC-PVTZ
  Basis Set:
  Basis Set: CC-PVTZ
  Basis Set:
  @DF-RHF Final Energy: -1146.61819143853245
    Total Energy =                      -1146.6181914385329037
  Basis Set: CC-PVTZ
  Basis Set:
  Basis Set: CC-PVTZ
  Basis Set:
  @DF-RHF Final Energy: -1146.61819292060954
    Total Energy =                      -1146.6181929206090899
  Basis Set: CC-PVTZ
  Basis Set:
  Charge       = 0
  Multiplicity = 1
  Basis Set: CC-PVTZ
  Basis Set:

    Orbital Energies (a.u.)
    -----------------------

    Doubly Occupied:

       1A   -104.857429     2A    -26.356477     3A    -26.352965
       4A    -26.351896     5A    -26.342776     6A    -26.342587
       7A    -20.640073     8A    -11.520749     9A    -11.483141
      10A    -11.401253    11A    -10.582980    12A     -8.049784
      13A     -8.047784    14A     -8.047721    15A     -1.768070
      16A     -1.724167    17A     -1.664667    18A     -1.659061
      19A     -1.644233    20A     -1.485973    21A     -1.178211
      22A     -1.053362    23A     -0.989995    24A     -0.924289
      25A     -0.864103    26A     -0.858151    27A     -0.852102
      28A     -0.829226    29A     -0.817452    30A     -0.794374
      31A     -0.732886    32A     -0.731014    33A     -0.711952
      34A     -0.708396    35A     -0.684428    36A     -0.681330
      37A     -0.664887    38A     -0.663754    39A     -0.649943
      40A     -0.637720    41A     -0.598577    42A     -0.581662
      43A     -0.525730    44A     -0.478272    45A     -0.470673

  @DF-RHF Final Energy: -1146.61819363471568

   => Energetics <=

    Nuclear Repulsion Energy =            737.9590116310369012
    One-Electron Energy =               -3059.1418696754135453
    Two-Electron Energy =                1174.5646644096621003
    DFT Exchange-Correlation Energy =       0.0000000000000000
    Empirical Dispersion Energy =           0.0000000000000000
    PCM Polarization Energy =               0.0000000000000000
    EFP Energy =                            0.0000000000000000
    Total Energy =                      -1146.6181936347145438
    Molecular point group: c1
  Basis Set: CC-PVTZ
  Basis Set:

  -Total Gradient:
     Atom            X                  Y                   Z
    ------   -----------------  -----------------  -----------------
       1       -0.000012037892    -0.000004969216    -0.000001764233
       2        0.000056560705    -0.000061106715     0.000068132703
       3       -0.000059569160     0.000100477251     0.000082219233
       4       -0.000010747819     0.000027968996    -0.000018325132
       5       -0.000009951568    -0.000007919326    -0.000024556139
       6        0.002946256913     0.004086283844    -0.002716101572
       7        0.002985447726     0.004943662677     0.000453266639
       8        0.000050076876    -0.000042681095     0.000036206649
       9       -0.003159707337    -0.004583124193     0.002124726150
      10       -0.002693148064    -0.004293941971     0.000067520814
      11       -0.000018921696    -0.000012163158     0.000035093124
      12       -0.000074258690    -0.000152487112    -0.000106418234

  **** Optimization is complete! (in 7 steps) ****
    Final optimized geometry and variables:
    Molecular point group: c1

    Geometry (in Angstrom), charge = 0, multiplicity = 1:

    H           -2.634983564870    -0.707329842560     1.237922682319
    C           -2.082532376472    -0.405252005340     0.367571861578
    O           -0.802491227076    -0.178688351788     0.739005295267
    F           -2.142029258570    -1.352818299793    -0.557916237933
    F           -2.625664956993     0.675990252989    -0.166832842872
    C            0.093366403459     0.264231864255    -0.215914904343
    C            1.386036807030    -0.532541581096    -0.007013257491
    CL           0.378136760091     2.003465401051    -0.063141105688
    H           -0.271163357303     0.050987122975    -1.205249846716
    F            1.673611264223    -0.675993936073     1.257167729394
    F            2.401804719347     0.011057642959    -0.619259218260
    F            1.207016628391    -1.735155417740    -0.512210168568

  Mulliken Charges: (a.u.)
   Center  Symbol    Alpha    Beta     Spin     Total
       1     H     0.45200  0.45200  0.00000  0.09600
       2     C     2.74034  2.74034  0.00000  0.51933
       3     O     4.15522  4.15522  0.00000 -0.31043
       4     F     4.61834  4.61834  0.00000 -0.23668
       5     F     4.61518  4.61518  0.00000 -0.23036
       6     C     2.94238  2.94238  0.00000  0.11524
       7     C     2.66959  2.66959  0.00000  0.66082
       8    CL     8.57165  8.57165  0.00000 -0.14330
       9     H     0.43041  0.43041  0.00000  0.13918
      10     F     4.59909  4.59909  0.00000 -0.19817
      11     F     4.59811  4.59811  0.00000 -0.19622
      12     F     4.60770  4.60770  0.00000 -0.21541

   Total alpha = 45.00000, Total beta = 45.00000, Total charge =  0.00000
