  ==> Input File <==

--------------------------------------------------------------------------
set {
	reference rhf
	basis cc-pvtz
}

set_num_threads( 4 )
memory 2 gb

molecule MOL {
0 1

H	 -1.903817	 -0.318042	 -0.974352
O	 -1.432053	 -0.565244	 -0.200812
C	 -0.727158	 0.534527	 0.310686
C	 0.680222	 0.664433	 -0.252229
H	 -1.306802	 1.408001	 0.044211
H	 -0.690821	 0.490158	 1.397609
C	 1.605391	 -0.489360	 0.123098
H	 0.615089	 0.745647	 -1.332226
H	 1.101414	 1.597893	 0.110950
H	 1.247627	 -1.432485	 -0.275204
H	 2.601435	 -0.332816	 -0.273062
H	 1.691776	 -0.589902	 1.200774

	symmetry c1
}
set optking {
	frozen_dihedral = ("
		1 2 3 4
	")
}

ee = optimize('scf')
oeprop('DIPOLE', 'QUADRUPOLE', 'MULLIKEN_CHARGES')
f=open( 'psi4out.xyz', 'w' )
f.write( "12  " )
f.write( str(ee) + "\n" )
f.write( MOL.save_string_xyz() )
f.close()
--------------------------------------------------------------------------

    Molecular point group: c1
  Charge       = 0
  Multiplicity = 1
  Basis Set: CC-PVTZ
  Basis Set:
  @DF-RHF Final Energy:  -193.18871149399061
    Total Energy =                       -193.1887114939907519
    Molecular point group: c1
  Basis Set: CC-PVTZ
  Basis Set:
  Basis Set: CC-PVTZ
  Basis Set:
  @DF-RHF Final Energy:  -193.19000299903450
    Total Energy =                       -193.1900029990343626
  Basis Set: CC-PVTZ
  Basis Set:
  Basis Set: CC-PVTZ
  Basis Set:
  @DF-RHF Final Energy:  -193.19035495166563
    Total Energy =                       -193.1903549516654266
  Basis Set: CC-PVTZ
  Basis Set:
  Basis Set: CC-PVTZ
  Basis Set:
  @DF-RHF Final Energy:  -193.19035883914751
    Total Energy =                       -193.1903588391475353
  Basis Set: CC-PVTZ
  Basis Set:
  Charge       = 0
  Multiplicity = 1
  Basis Set: CC-PVTZ
  Basis Set:

    Orbital Energies (a.u.)
    -----------------------

    Doubly Occupied:

       1A    -20.546373     2A    -11.266430     3A    -11.214861
       4A    -11.203253     5A     -1.364136     6A     -1.048458
       7A     -0.920624     8A     -0.809950     9A     -0.693363
      10A     -0.639555    11A     -0.613454    12A     -0.566806
      13A     -0.530658    14A     -0.519366    15A     -0.482461
      16A     -0.467581    17A     -0.432039

  @DF-RHF Final Energy:  -193.19035974465029

   => Energetics <=

    Nuclear Repulsion Energy =            133.1371339129532601
    One-Electron Energy =                -526.0162497929758274
    Two-Electron Energy =                 199.6887561353722731
    DFT Exchange-Correlation Energy =       0.0000000000000000
    Empirical Dispersion Energy =           0.0000000000000000
    PCM Polarization Energy =               0.0000000000000000
    EFP Energy =                            0.0000000000000000
    Total Energy =                       -193.1903597446503227
    Molecular point group: c1
  Basis Set: CC-PVTZ
  Basis Set:

  -Total Gradient:
     Atom            X                  Y                   Z
    ------   -----------------  -----------------  -----------------
       1       -0.001137588233     0.000367304398     0.000776938581
       2        0.001581770867    -0.000580345198    -0.000634455188
       3       -0.000718689380     0.000741754950    -0.000827168253
       4        0.000273090563    -0.000539740292     0.000672706795
       5        0.000002312103     0.000006318851    -0.000011618412
       6        0.000020218568    -0.000024754893    -0.000005321801
       7        0.000007247999     0.000016116491     0.000012004716
       8       -0.000005864068     0.000000467450     0.000000384524
       9       -0.000018367357     0.000010691698     0.000002039881
      10       -0.000002484034     0.000007812174    -0.000003577856
      11       -0.000006636932     0.000008036659     0.000005656511
      12        0.000004989903    -0.000013662289     0.000012410501

  **** Optimization is complete! (in 5 steps) ****
    Final optimized geometry and variables:
    Molecular point group: c1

    Geometry (in Angstrom), charge = 0, multiplicity = 1:

    H           -1.848067276067    -0.398606667961    -0.960518231382
    O           -1.387310778232    -0.605345734365    -0.169262096005
    C           -0.721200360198     0.533113290376     0.315024429774
    C            0.691207208317     0.663346706308    -0.233743965765
    H           -1.291280895314     1.430759464869     0.093756414180
    H           -0.686530835987     0.433386566876     1.393603462875
    C            1.593503627255    -0.507501936143     0.139150421081
    H            0.642807861566     0.760009299962    -1.315505524879
    H            1.115555647449     1.591251118112     0.140992114534
    H            1.184701418435    -1.441200804704    -0.223939036232
    H            2.584128455957    -0.384037768609    -0.282899146069
    H            1.699863045685    -0.587590712719     1.216189455679

  Mulliken Charges: (a.u.)
   Center  Symbol    Alpha    Beta     Spin     Total
       1     H     0.39376  0.39376  0.00000  0.21249
       2     O     4.20435  4.20435  0.00000 -0.40869
       3     C     2.97676  2.97676  0.00000  0.04649
       4     C     3.08118  3.08118  0.00000 -0.16236
       5     H     0.46223  0.46223  0.00000  0.07553
       6     H     0.46152  0.46152  0.00000  0.07695
       7     C     3.14778  3.14778  0.00000 -0.29555
       8     H     0.46081  0.46081  0.00000  0.07837
       9     H     0.45708  0.45708  0.00000  0.08583
      10     H     0.44663  0.44663  0.00000  0.10674
      11     H     0.45094  0.45094  0.00000  0.09812
      12     H     0.45696  0.45696  0.00000  0.08607

   Total alpha = 17.00000, Total beta = 17.00000, Total charge =  0.00000
