  ==> Input File <==

--------------------------------------------------------------------------
set {
	reference rhf
	basis 6-31G*
}

set_num_threads( 1 )
memory 2 gb

molecule MOL {
0 1

H	 -3.161837	 0.500524	 -0.000234
C	 -2.367097	 -0.232926	 -0.000000
O	 -1.158440	 0.455814	 -0.000122
H	 -2.468853	 -0.861886	 -0.882833
H	 -2.468942	 -0.861421	 0.883154
C	 -0.029776	 -0.365156	 0.000148
C	 1.091123	 0.342746	 0.741176
H	 0.273851	 -0.586241	 -1.023977
H	 -0.258532	 -1.317650	 0.480078
C	 2.373525	 -0.486592	 0.791417
H	 1.278930	 1.294362	 0.253511
H	 0.750353	 0.568047	 1.747066
H	 2.745254	 -0.702659	 -0.206359
H	 3.155748	 0.041927	 1.325870
H	 2.212769	 -1.434587	 1.297250

	symmetry c1
}
set optking {
	frozen_dihedral = ("
		6 3 2 4,
		11 7 6 8
	")
}

ee = energy('scf')
oeprop('DIPOLE', 'QUADRUPOLE', 'MULLIKEN_CHARGES')
f=open( 'psi4out.xyz', 'w' )
f.write( "15  " )
f.write( str(ee) + "\n" )
f.write( MOL.save_string_xyz() )
f.close()
--------------------------------------------------------------------------

    Molecular point group: c1

    Geometry (in Angstrom), charge = 0, multiplicity = 1:

       Center              X                  Y                   Z               Mass
    ------------   -----------------  -----------------  -----------------  -----------------
           H         -3.112682921320     0.568001916519    -0.301217184714     1.007825032070
           C         -2.317942921320    -0.165448083481    -0.300983184714    12.000000000000
           O         -1.109285921320     0.523291916519    -0.301105184714    15.994914619560
           H         -2.419698921320    -0.794408083481    -1.183816184714     1.007825032070
           H         -2.419787921320    -0.793943083481     0.582170815286     1.007825032070
           C          0.019378078680    -0.297678083481    -0.300835184714    12.000000000000
           C          1.140277078680     0.410223916519     0.440192815286    12.000000000000
           H          0.323005078680    -0.518763083481    -1.324960184714     1.007825032070
           H         -0.209377921320    -1.250172083481     0.179094815286     1.007825032070
           C          2.422679078680    -0.419114083481     0.490433815286    12.000000000000
           H          1.328084078680     1.361839916519    -0.047472184714     1.007825032070
           H          0.799507078680     0.635524916519     1.446082815286     1.007825032070
           H          2.794408078680    -0.635181083481    -0.507342184714     1.007825032070
           H          3.204902078680     0.109404916519     1.024886815286     1.007825032070
           H          2.261923078680    -1.367109083481     0.996266815286     1.007825032070

  Charge       = 0
  Multiplicity = 1
  Basis Set: 6-31G*
  Basis Set:

    Orbital Energies (a.u.)
    -----------------------

    Doubly Occupied:

       1A    -20.552260     2A    -11.265831     3A    -11.264531
       4A    -11.213626     5A    -11.212519     6A     -1.378108
       7A     -1.056754     8A     -0.955383     9A     -0.878064
      10A     -0.808988    11A     -0.673832    12A     -0.653365
      13A     -0.632492    14A     -0.605092    15A     -0.566767
      16A     -0.539780    17A     -0.502833    18A     -0.490067
      19A     -0.479743    20A     -0.463168    21A     -0.409532

  @DF-RHF Final Energy:  -232.13729893381506

   => Energetics <=

    Nuclear Repulsion Energy =            190.0378262743563198
    One-Electron Energy =                -691.1448097819181839
    Two-Electron Energy =                 268.9696845737466901
    DFT Exchange-Correlation Energy =       0.0000000000000000
    Empirical Dispersion Energy =           0.0000000000000000
    PCM Polarization Energy =               0.0000000000000000
    EFP Energy =                            0.0000000000000000
    Total Energy =                       -232.1372989338151456

  Mulliken Charges: (a.u.)
   Center  Symbol    Alpha    Beta     Spin     Total
       1     H     0.41276  0.41276  0.00000  0.17448
       2     C     3.08032  3.08032  0.00000 -0.16064
       3     O     4.30568  4.30568  0.00000 -0.61136
       4     H     0.43034  0.43034  0.00000  0.13933
       5     H     0.42975  0.42975  0.00000  0.14049
       6     C     2.98290  2.98290  0.00000  0.03420
       7     C     3.15835  3.15835  0.00000 -0.31669
       8     H     0.42950  0.42950  0.00000  0.14101
       9     H     0.43387  0.43387  0.00000  0.13227
      10     C     3.24844  3.24844  0.00000 -0.49688
      11     H     0.41384  0.41384  0.00000  0.17233
      12     H     0.41663  0.41663  0.00000  0.16674
      13     H     0.42055  0.42055  0.00000  0.15889
      14     H     0.41561  0.41561  0.00000  0.16878
      15     H     0.42147  0.42147  0.00000  0.15706

   Total alpha = 21.00000, Total beta = 21.00000, Total charge = -0.00000
