  ==> Input File <==

--------------------------------------------------------------------------
set {
	reference rhf
	basis 6-31G*
}

set_num_threads( 4 )
memory 2 gb

molecule MOL {
0 1

H	 2.861780	 0.246187	 -0.074175
C	 1.951159	 -0.223429	 0.317018
C	 0.692068	 0.589600	 0.160137
O	 2.003183	 -1.298622	 0.820390
C	 -0.558097	 -0.297372	 0.091132
H	 0.791645	 1.202255	 -0.728243
H	 0.616171	 1.253469	 1.020572
C	 -1.850991	 0.512573	 -0.019058
H	 -0.476753	 -0.965681	 -0.762987
H	 -0.604799	 -0.930658	 0.975228
C	 -3.096943	 -0.368295	 -0.099594
H	 -1.800724	 1.150330	 -0.898172
H	 -1.931651	 1.177355	 0.838044
H	 -3.060452	 -1.020287	 -0.967456
H	 -3.996858	 0.233488	 -0.175704
H	 -3.191959	 -0.995686	 0.782074

	symmetry c1
}
set optking {
	frozen_dihedral = ("
		4 2 3 6
	")
}

ee = optimize('scf')
oeprop('DIPOLE', 'QUADRUPOLE', 'MULLIKEN_CHARGES')
f=open( 'psi4out.xyz', 'w' )
f.write( "16  " )
f.write( str(ee) + "\n" )
f.write( MOL.save_string_xyz() )
f.close()
--------------------------------------------------------------------------

    Molecular point group: c1
  Charge       = 0
  Multiplicity = 1
  Basis Set: 6-31G*
  Basis Set:
  @DF-RHF Final Energy:  -270.01981727588742
    Total Energy =                       -270.0198172758875899
    Molecular point group: c1
  Basis Set: 6-31G*
  Basis Set:
  Basis Set: 6-31G*
  Basis Set:
  @DF-RHF Final Energy:  -270.01960621299344
    Total Energy =                       -270.0196062129934944
  Basis Set: 6-31G*
  Basis Set:
  Basis Set: 6-31G*
  Basis Set:
  @DF-RHF Final Energy:  -270.01968259936132
    Total Energy =                       -270.0196825993616585
  Basis Set: 6-31G*
  Basis Set:
  Basis Set: 6-31G*
  Basis Set:
  @DF-RHF Final Energy:  -270.02041462779192
    Total Energy =                       -270.0204146277919790
  Basis Set: 6-31G*
  Basis Set:
  Basis Set: 6-31G*
  Basis Set:
  @DF-RHF Final Energy:  -270.02041797857288
    Total Energy =                       -270.0204179785729366
  Basis Set: 6-31G*
  Basis Set:
  Charge       = 0
  Multiplicity = 1
  Basis Set: 6-31G*
  Basis Set:

    Orbital Energies (a.u.)
    -----------------------

    Doubly Occupied:

       1A    -20.563356     2A    -11.328453     3A    -11.237122
       4A    -11.223585     5A    -11.222789     6A    -11.212775
       7A     -1.403704     8A     -1.089044     9A     -1.015149
      10A     -0.908285    11A     -0.814060    12A     -0.772838
      13A     -0.676963    14A     -0.653237    15A     -0.628389
      16A     -0.598353    17A     -0.584340    18A     -0.537913
      19A     -0.527626    20A     -0.497468    21A     -0.483076
      22A     -0.478696    23A     -0.472192    24A     -0.410319

  @DF-RHF Final Energy:  -270.02041737918466

   => Energetics <=

    Nuclear Repulsion Energy =            231.6003068043339965
    One-Electron Energy =                -824.5619825745943672
    Two-Electron Energy =                 322.9412583910759622
    DFT Exchange-Correlation Energy =       0.0000000000000000
    Empirical Dispersion Energy =           0.0000000000000000
    PCM Polarization Energy =               0.0000000000000000
    EFP Energy =                            0.0000000000000000
    Total Energy =                       -270.0204173791844369
    Molecular point group: c1
  Basis Set: 6-31G*
  Basis Set:

  -Total Gradient:
     Atom            X                  Y                   Z
    ------   -----------------  -----------------  -----------------
       1       -0.000038301817     0.000004099059    -0.000043283081
       2       -0.000327794018    -0.000827029998    -0.002496004961
       3       -0.000818215543    -0.001582092418    -0.000712012013
       4        0.000291482883     0.000840526429     0.001940604582
       5        0.000140956421     0.000086119562     0.000037096020
       6        0.000770879294     0.001488049671     0.001203880625
       7        0.000045106037     0.000012883931     0.000095585734
       8       -0.000033999176    -0.000025587866    -0.000048676133
       9       -0.000007160452    -0.000010564007    -0.000000751094
      10        0.000002440245     0.000014117075     0.000038539570
      11       -0.000028452216     0.000021862427    -0.000019301947
      12       -0.000005432040     0.000006852683     0.000006381405
      13        0.000004546315    -0.000031979248    -0.000001760874
      14        0.000001763677     0.000003130444    -0.000003884833
      15       -0.000003780852    -0.000007544641    -0.000003022854
      16        0.000005961239     0.000007156898     0.000006609854

  **** Optimization is complete! (in 6 steps) ****
    Final optimized geometry and variables:
    Molecular point group: c1

    Geometry (in Angstrom), charge = 0, multiplicity = 1:

    H            3.026236899501     0.505972367329    -0.209613722896
    C            2.116468185706    -0.017698441273     0.104605292823
    C            0.832912337702     0.759809856605    -0.055802210897
    O            2.189619308797    -1.106138192703     0.576477204222
    C           -0.420390833410    -0.110043513530    -0.117056600614
    H            0.923427759973     1.408236391669    -0.924267662643
    H            0.783568291468     1.435168173496     0.800129690596
    C           -1.704339804029     0.712844248325    -0.232195250423
    H           -0.343765101880    -0.787050871309    -0.964097029382
    H           -0.458922953893    -0.735215386442     0.768305999833
    C           -2.958609968771    -0.157285707945    -0.301275710644
    H           -1.654284310113     1.344028989568    -1.117095119462
    H           -1.779463913429     1.386353255590     0.619080616662
    H           -2.929897336631    -0.818157323978    -1.162771272913
    H           -3.854121122762     0.450995498125    -0.380257432691
    H           -3.054928486651    -0.775979858432     0.586104657930

  Mulliken Charges: (a.u.)
   Center  Symbol    Alpha    Beta     Spin     Total
       1     H     0.42697  0.42697  0.00000  0.14606
       2     C     2.83711  2.83711  0.00000  0.32577
       3     C     3.21234  3.21234  0.00000 -0.42469
       4     O     4.23766  4.23766  0.00000 -0.47531
       5     C     3.15018  3.15018  0.00000 -0.30037
       6     H     0.41205  0.41205  0.00000  0.17590
       7     H     0.40409  0.40409  0.00000  0.19182
       8     C     3.15353  3.15353  0.00000 -0.30706
       9     H     0.41653  0.41653  0.00000  0.16693
      10     H     0.40628  0.40628  0.00000  0.18744
      11     C     3.23970  3.23970  0.00000 -0.47940
      12     H     0.42322  0.42322  0.00000  0.15356
      13     H     0.42250  0.42250  0.00000  0.15501
      14     H     0.42020  0.42020  0.00000  0.15960
      15     H     0.41840  0.41840  0.00000  0.16320
      16     H     0.41924  0.41924  0.00000  0.16152

   Total alpha = 24.00000, Total beta = 24.00000, Total charge = -0.00000
