                              Psi4 1.0.54 Driver

  ==> Input File <==

--------------------------------------------------------------------------
set {
	reference rhf
	basis cc-pvtz
}

set_num_threads( 4 )
memory 2 gb

molecule MOL {
0 1

H	 -2.362939	 -1.309000	 -0.383250
C	 -1.359344	 -1.272457	 0.020748
C	 -0.684082	 0.000127	 -0.464918
H	 -0.825835	 -2.151141	 -0.318537
H	 -1.416276	 -1.292399	 1.099455
C	 -1.359089	 1.272668	 0.021259
N	 0.742439	 -0.000109	 0.007333
H	 -0.596914	 0.000345	 -1.538146
H	 -2.362696	 1.309620	 -0.382686
H	 -0.825392	 2.151374	 -0.317674
H	 -1.415983	 1.292181	 1.099973
O	 1.145940	 -0.989121	 0.519863
O	 1.374695	 0.988682	 -0.162478

	symmetry c1
}
set optking {
	frozen_dihedral = ("
		12 7 3 8
	")
}

ee,wfn = optimize('scf', return_wfn=True)
oeprop( wfn, 'DIPOLE', 'QUADRUPOLE', 'MULLIKEN_CHARGES')
f=open( 'psi4out.xyz', 'w' )
f.write( "13  " )
f.write( str(ee) + "\n" )
f.write( MOL.save_string_xyz() )
f.close()
--------------------------------------------------------------------------

    Molecular point group: c1
  Charge       = 0
  Multiplicity = 1
  Basis Set: CC-PVTZ
  Basis Set:
  @DF-RHF Final Energy:  -321.86163434626013
    Total Energy =                       -321.8616343462602458
    Molecular point group: c1
  Basis Set: CC-PVTZ
  Basis Set:
  Basis Set: CC-PVTZ
  Basis Set:
  @DF-RHF Final Energy:  -321.85819897390343
    Total Energy =                       -321.8581989739034839
  Basis Set: CC-PVTZ
  Basis Set:
  Basis Set: CC-PVTZ
  Basis Set:
  @DF-RHF Final Energy:  -321.85532241774411
    Total Energy =                       -321.8553224177442189
  Basis Set: CC-PVTZ
  Basis Set:
  Basis Set: CC-PVTZ
  Basis Set:
  @DF-RHF Final Energy:  -321.85881451093820
    Total Energy =                       -321.8588145109381458
  Basis Set: CC-PVTZ
  Basis Set:
  @DF-RHF Final Energy:  -321.86228361793638
    Total Energy =                       -321.8622836179364413
  Basis Set: CC-PVTZ
  Basis Set:
  @DF-RHF Final Energy:  -321.86257927230088
    Total Energy =                       -321.8625792723007635
  Basis Set: CC-PVTZ
  Basis Set:
  Basis Set: CC-PVTZ
  Basis Set:
  @DF-RHF Final Energy:  -321.86260736317951
    Total Energy =                       -321.8626073631794497
  Basis Set: CC-PVTZ
  Basis Set:
  Basis Set: CC-PVTZ
  Basis Set:
  @DF-RHF Final Energy:  -321.86261028267137
    Total Energy =                       -321.8626102826714259
  Basis Set: CC-PVTZ
  Basis Set:
  Charge       = 0
  Multiplicity = 1
  Basis Set: CC-PVTZ
  Basis Set:

    Orbital Energies (a.u.)
    -----------------------

    Doubly Occupied:

       1A    -20.591140     2A    -20.585935     3A    -15.833799
       4A    -11.306605     5A    -11.240810     6A    -11.237276
       7A     -1.634475     8A     -1.418238     9A     -1.140118
      10A     -0.968462    11A     -0.958162    12A     -0.815213
      13A     -0.763860    14A     -0.730164    15A     -0.723396
      16A     -0.641395    17A     -0.594702    18A     -0.587168
      19A     -0.570324    20A     -0.523549    21A     -0.521406
      22A     -0.483859    23A     -0.472441    24A     -0.451813

  @DF-RHF Final Energy:  -321.86261050239881

   => Energetics <=

    Nuclear Repulsion Energy =            257.2571240532459456
    One-Electron Energy =                -948.6508457325710424
    Two-Electron Energy =                 369.5311111769265722
    DFT Exchange-Correlation Energy =       0.0000000000000000
    Empirical Dispersion Energy =           0.0000000000000000
    PCM Polarization Energy =               0.0000000000000000
    EFP Energy =                            0.0000000000000000
    Total Energy =                       -321.8626105023985815
    Molecular point group: c1
  Basis Set: CC-PVTZ
  Basis Set:

  -Total Gradient:
     Atom            X                  Y                   Z
    ------   -----------------  -----------------  -----------------
       1        0.000017448114     0.000006345747     0.000003146111
       2       -0.000002679620    -0.000011296259     0.000004284512
       3       -0.000054116464     0.001194006198    -0.000457294870
       4        0.000002371664    -0.000007981174     0.000001425087
       5       -0.000005121214    -0.000005469729     0.000010665557
       6        0.000014605101     0.000016130112     0.000007874775
       7       -0.000575371780     0.000394463307     0.001412148002
       8        0.000205714866    -0.001169389989     0.000059694362
       9        0.000015733594    -0.000005007699    -0.000000029357
      10       -0.000002552616     0.000010203254     0.000004470581
      11        0.000000392962    -0.000001513670    -0.000004073289
      12        0.000411886199    -0.000396238203    -0.001055889222
      13       -0.000028310808    -0.000024251896     0.000013577749

  **** Optimization is complete! (in 9 steps) ****
    Final optimized geometry and variables:
    Molecular point group: c1

    Geometry (in Angstrom), charge = 0, multiplicity = 1:

    H           -2.173272062169    -1.619493231444    -0.393835245228
    C           -1.189658926540    -1.467781294099     0.033042772006
    C           -0.663979133886    -0.132257484447    -0.456590547568
    H           -0.552376091219    -2.283790988923    -0.269936419418
    H           -1.276948261652    -1.484112158517     1.110922479387
    C           -1.542453067731     1.046517751893    -0.065752489848
    N            0.742654216857     0.113945919258     0.038336303223
    H           -0.531856093362    -0.156928989656    -1.529956494012
    H           -2.534520354007     0.886637515631    -0.467322445729
    H           -1.153970475332     1.973981678016    -0.453996510183
    H           -1.622338192202     1.123772749868     1.011978699870
    O            1.306116707810    -0.762017936621     0.600331401259
    O            1.211931916448     1.175824405205    -0.204287611494

  Mulliken Charges: (a.u.)
   Center  Symbol    Alpha    Beta     Spin     Total
       1     H     0.45043  0.45043  0.00000  0.09914
       2     C     3.14236  3.14236  0.00000 -0.28472
       3     C     3.00663  3.00663  0.00000 -0.01325
       4     H     0.43517  0.43517  0.00000  0.12966
       5     H     0.44394  0.44394  0.00000  0.11212
       6     C     3.14435  3.14435  0.00000 -0.28869
       7     N     3.27533  3.27533  0.00000  0.44933
       8     H     0.43005  0.43005  0.00000  0.13990
       9     H     0.45008  0.45008  0.00000  0.09983
      10     H     0.43056  0.43056  0.00000  0.13887
      11     H     0.44669  0.44669  0.00000  0.10663
      12     O     4.16931  4.16931  0.00000 -0.33863
      13     O     4.17509  4.17509  0.00000 -0.35018

   Total alpha = 24.00000, Total beta = 24.00000, Total charge =  0.00000

*** Psi4 exiting successfully. Buy a developer a beer!
