  ==> Input File <==

--------------------------------------------------------------------------
set {
	reference rhf
	basis 6-31G*
}

set_num_threads( 4 )
memory 2 gb

molecule MOL {
0 1

H	 1.142599	 1.208813	 1.756097
O	 1.363409	 0.480756	 1.191271
C	 0.709265	 0.639550	 -0.033818
C	 -0.793441	 0.596080	 0.058728
H	 1.058382	 -0.166052	 -0.669684
H	 1.010633	 1.568997	 -0.515824
C	 -1.530462	 -0.493172	 -0.025500
H	 -1.268471	 1.554324	 0.202247
H	 -1.092586	 -1.461565	 -0.186463
H	 -2.602122	 -0.450675	 0.050101

	symmetry c1
}
set optking {
	frozen_dihedral = ("
		5 3 4 7
	")
}

ee = optimize('scf')
oeprop('DIPOLE', 'QUADRUPOLE', 'MULLIKEN_CHARGES')
f=open( 'psi4out.xyz', 'w' )
f.write( "10  " )
f.write( str(ee) + "\n" )
f.write( MOL.save_string_xyz() )
f.close()
--------------------------------------------------------------------------

    Molecular point group: c1
  Charge       = 0
  Multiplicity = 1
  Basis Set: 6-31G*
  Basis Set:
  @DF-RHF Final Energy:  -191.91271150755074
    Total Energy =                       -191.9127115075507390
    Molecular point group: c1
  Basis Set: 6-31G*
  Basis Set:
  Basis Set: 6-31G*
  Basis Set:
  @DF-RHF Final Energy:  -191.91306883101410
    Total Energy =                       -191.9130688310142432
  Basis Set: 6-31G*
  Basis Set:
  Basis Set: 6-31G*
  Basis Set:
  @DF-RHF Final Energy:  -191.91312909178095
    Total Energy =                       -191.9131290917810588
  Basis Set: 6-31G*
  Basis Set:
  Basis Set: 6-31G*
  Basis Set:
  @DF-RHF Final Energy:  -191.91313645823175
    Total Energy =                       -191.9131364582316905
  Basis Set: 6-31G*
  Basis Set:
  Charge       = 0
  Multiplicity = 1
  Basis Set: 6-31G*
  Basis Set:

    Orbital Energies (a.u.)
    -----------------------

    Doubly Occupied:

       1A    -20.554913     2A    -11.274803     3A    -11.230455
       4A    -11.227312     5A     -1.361204     6A     -1.061397
       7A     -0.920519     8A     -0.779277     9A     -0.679984
      10A     -0.658029    11A     -0.610034    12A     -0.572002
      13A     -0.548398    14A     -0.479273    15A     -0.439694
      16A     -0.373713

  @DF-RHF Final Energy:  -191.91313743324861

   => Energetics <=

    Nuclear Repulsion Energy =            117.7627310396379698
    One-Electron Energy =                -493.8097182600606061
    Two-Electron Energy =                 184.1338497871740287
    DFT Exchange-Correlation Energy =       0.0000000000000000
    Empirical Dispersion Energy =           0.0000000000000000
    PCM Polarization Energy =               0.0000000000000000
    EFP Energy =                            0.0000000000000000
    Total Energy =                       -191.9131374332486075
    Molecular point group: c1
  Basis Set: 6-31G*
  Basis Set:

  -Total Gradient:
     Atom            X                  Y                   Z
    ------   -----------------  -----------------  -----------------
       1        0.000006920420     0.000026355160     0.000003820955
       2        0.000019835551     0.000021886710     0.000040104401
       3        0.000130026877    -0.001633448577     0.002884411597
       4       -0.000204788118     0.000632332703    -0.003108456987
       5       -0.000137027776     0.001173953220    -0.001683325994
       6        0.000022247776    -0.000004121661     0.000058342090
       7        0.000180848057    -0.000184581824     0.001848028430
       8        0.000001381583    -0.000019860894    -0.000039076610
       9       -0.000021232070     0.000007900130    -0.000006345239
      10        0.000001787698    -0.000020414968     0.000002497358

  **** Optimization is complete! (in 5 steps) ****
    Final optimized geometry and variables:
    Molecular point group: c1

    Geometry (in Angstrom), charge = 0, multiplicity = 1:

    H            1.051483203053     0.838592569280     1.442809142924
    O            1.343862291443     0.157276538202     0.853177860982
    C            0.701802737220     0.303499662390    -0.388666017845
    C           -0.804622424423     0.283388811915    -0.288689960321
    H            1.046209136499    -0.514839863582    -1.005907848418
    H            1.024461948250     1.223782055383    -0.871347665233
    C           -1.532391044614    -0.813812473995    -0.350422207532
    H           -1.292017662816     1.229986920883    -0.110125577595
    H           -1.085991304038    -1.779020555384    -0.519264086036
    H           -2.602041057491    -0.792648732095    -0.239136973391

  Mulliken Charges: (a.u.)
   Center  Symbol    Alpha    Beta     Spin     Total
       1     H     0.28325  0.28325  0.00000  0.43350
       2     O     4.36477  4.36477  0.00000 -0.72955
       3     C     3.00634  3.00634  0.00000 -0.01267
       4     C     3.09372  3.09372  0.00000 -0.18743
       5     H     0.41117  0.41117  0.00000  0.17765
       6     H     0.42778  0.42778  0.00000  0.14444
       7     C     3.18382  3.18382  0.00000 -0.36763
       8     H     0.41106  0.41106  0.00000  0.17789
       9     H     0.40849  0.40849  0.00000  0.18302
      10     H     0.40961  0.40961  0.00000  0.18079

   Total alpha = 16.00000, Total beta = 16.00000, Total charge =  0.00000
