  ==> Input File <==

--------------------------------------------------------------------------
set {
	reference rhf
	basis 6-31G*
}

set_num_threads( 1 )
memory 2 gb

molecule MOL {
0 1

H	 -2.268161	 1.181737	 -1.766952
N	 -1.283656	 1.112341	 -1.596928
C	 -0.776064	 -0.177449	 -2.030399
H	 -1.143207	 1.212297	 -0.610321
C	 0.704834	 -0.277633	 -1.730329
H	 -1.279329	 -1.026120	 -1.565122
H	 -0.917628	 -0.263192	 -3.103427
O	 0.874168	 -0.245412	 -0.342030
H	 1.109264	 -1.205010	 -2.135354
H	 1.229039	 0.555224	 -2.193788
C	 2.202317	 -0.244239	 0.074611
H	 2.711377	 -1.041390	 -0.449894
H	 2.692099	 0.699270	 -0.159667
H	 2.283185	 -0.418429	 1.145558

	symmetry c1
}
set optking {
	frozen_dihedral = ("
		8 5 3 6,
		6 3 2 4,
		11 8 5 3
	")
}

ee = energy('scf')
oeprop('DIPOLE', 'QUADRUPOLE', 'MULLIKEN_CHARGES')
f=open( 'psi4out.xyz', 'w' )
f.write( "14  " )
f.write( str(ee) + "\n" )
f.write( MOL.save_string_xyz() )
f.close()
--------------------------------------------------------------------------

    Molecular point group: c1

    Geometry (in Angstrom), charge = 0, multiplicity = 1:

       Center              X                  Y                   Z               Mass
    ------------   -----------------  -----------------  -----------------  -----------------
           H         -2.614929428203     1.142426286351    -0.661429403343     1.007825032070
           N         -1.630424428203     1.073030286351    -0.491405403343    14.003074004780
           C         -1.122832428203    -0.216759713649    -0.924876403343    12.000000000000
           H         -1.489975428203     1.172986286351     0.495201596657     1.007825032070
           C          0.358065571797    -0.316943713649    -0.624806403343    12.000000000000
           H         -1.626097428203    -1.065430713649    -0.459599403343     1.007825032070
           H         -1.264396428203    -0.302502713649    -1.997904403343     1.007825032070
           O          0.527399571797    -0.284722713649     0.763492596657    15.994914619560
           H          0.762495571797    -1.244320713649    -1.029831403343     1.007825032070
           H          0.882270571797     0.515913286351    -1.088265403343     1.007825032070
           C          1.855548571797    -0.283549713649     1.180133596657    12.000000000000
           H          2.364608571797    -1.080700713649     0.655628596657     1.007825032070
           H          2.345330571797     0.659959286351     0.945855596657     1.007825032070
           H          1.936416571797    -0.457739713649     2.251080596657     1.007825032070

  Charge       = 0
  Multiplicity = 1
  Basis Set: 6-31G*
  Basis Set:

    Orbital Energies (a.u.)
    -----------------------

    Doubly Occupied:

       1A    -20.556229     2A    -15.528404     3A    -11.266518
       4A    -11.266279     5A    -11.241041     6A     -1.381093
       7A     -1.173629     8A     -0.998583     9A     -0.907342
      10A     -0.815636    11A     -0.685027    12A     -0.673687
      13A     -0.642745    14A     -0.612984    15A     -0.605449
      16A     -0.539983    17A     -0.530348    18A     -0.498255
      19A     -0.471106    20A     -0.416628    21A     -0.380115

  @DF-RHF Final Energy:  -248.12386309949522

   => Energetics <=

    Nuclear Repulsion Energy =            194.7219013291957026
    One-Electron Energy =                -723.3093224445863143
    Two-Electron Energy =                 280.4635580158959556
    DFT Exchange-Correlation Energy =       0.0000000000000000
    Empirical Dispersion Energy =           0.0000000000000000
    PCM Polarization Energy =               0.0000000000000000
    EFP Energy =                            0.0000000000000000
    Total Energy =                       -248.1238630994946561

  Mulliken Charges: (a.u.)
   Center  Symbol    Alpha    Beta     Spin     Total
       1     H     0.33287  0.33287  0.00000  0.33426
       2     N     3.92525  3.92525  0.00000 -0.85050
       3     C     3.06871  3.06871  0.00000 -0.13742
       4     H     0.32359  0.32359  0.00000  0.35282
       5     C     2.99033  2.99033  0.00000  0.01933
       6     H     0.42652  0.42652  0.00000  0.14697
       7     H     0.42041  0.42041  0.00000  0.15917
       8     O     4.31067  4.31067  0.00000 -0.62133
       9     H     0.43077  0.43077  0.00000  0.13847
      10     H     0.42250  0.42250  0.00000  0.15499
      11     C     3.07805  3.07805  0.00000 -0.15609
      12     H     0.43064  0.43064  0.00000  0.13871
      13     H     0.42675  0.42675  0.00000  0.14650
      14     H     0.41293  0.41293  0.00000  0.17414

   Total alpha = 21.00000, Total beta = 21.00000, Total charge = -0.00000
