                              Psi4 1.0.54 Driver

  ==> Input File <==

--------------------------------------------------------------------------
set {
	reference rhf
	basis cc-pvtz
}

set_num_threads( 4 )
memory 2 gb

molecule MOL {
0 1

H	 -3.162190	 0.493205	 -0.000107
C	 -2.363908	 -0.234727	 0.000005
O	 -1.158738	 0.454634	 -0.000087
H	 -2.464314	 -0.863616	 -0.882153
H	 -2.464327	 -0.863359	 0.882345
C	 -0.028611	 -0.359694	 0.000037
C	 1.212847	 0.509314	 -0.000053
H	 -0.034155	 -1.007047	 -0.877198
H	 -0.034195	 -1.006836	 0.877430
C	 1.734226	 0.779763	 -1.406955
H	 0.980282	 1.443952	 0.498235
H	 1.976974	 0.020047	 0.593815
H	 0.992917	 1.291360	 -2.011782
H	 2.620176	 1.402057	 -1.377582
H	 1.996548	 -0.142022	 -1.915449

	symmetry c1
}
set optking {
	frozen_dihedral = ("
		11 7 6 8
	")
}

ee,wfn = optimize('scf', return_wfn=True)
oeprop( wfn, 'DIPOLE', 'QUADRUPOLE', 'MULLIKEN_CHARGES')
f=open( 'psi4out.xyz', 'w' )
f.write( "15  " )
f.write( str(ee) + "\n" )
f.write( MOL.save_string_xyz() )
f.close()
--------------------------------------------------------------------------

    Molecular point group: c1
  Charge       = 0
  Multiplicity = 1
  Basis Set: CC-PVTZ
  Basis Set:
  @DF-RHF Final Energy:  -232.22476138015006
    Total Energy =                       -232.2247613801499142
    Molecular point group: c1
  Basis Set: CC-PVTZ
  Basis Set:
  Basis Set: CC-PVTZ
  Basis Set:
  @DF-RHF Final Energy:  -232.22524275762177
    Total Energy =                       -232.2252427576216292
  Basis Set: CC-PVTZ
  Basis Set:
  Basis Set: CC-PVTZ
  Basis Set:
  @DF-RHF Final Energy:  -232.22534384757887
    Total Energy =                       -232.2253438475785856
  Basis Set: CC-PVTZ
  Basis Set:
  Basis Set: CC-PVTZ
  Basis Set:
  @DF-RHF Final Energy:  -232.22534701994141
    Total Energy =                       -232.2253470199413528
  Basis Set: CC-PVTZ
  Basis Set:
  Charge       = 0
  Multiplicity = 1
  Basis Set: CC-PVTZ
  Basis Set:

    Orbital Energies (a.u.)
    -----------------------

    Doubly Occupied:

       1A    -20.547292     2A    -11.264804     3A    -11.261554
       4A    -11.212963     5A    -11.205263     6A     -1.380727
       7A     -1.054966     8A     -0.952674     9A     -0.881746
      10A     -0.805068    11A     -0.670663    12A     -0.663118
      13A     -0.632944    14A     -0.584620    15A     -0.580073
      16A     -0.546347    17A     -0.493955    18A     -0.484896
      19A     -0.484066    20A     -0.461861    21A     -0.415283

  @DF-RHF Final Energy:  -232.22534748849216

   => Energetics <=

    Nuclear Repulsion Energy =            191.9194331008123413
    One-Electron Energy =                -695.1197929546754040
    Two-Electron Energy =                 270.9750123653709579
    DFT Exchange-Correlation Energy =       0.0000000000000000
    Empirical Dispersion Energy =           0.0000000000000000
    PCM Polarization Energy =               0.0000000000000000
    EFP Energy =                            0.0000000000000000
    Total Energy =                       -232.2253474884921047
    Molecular point group: c1
  Basis Set: CC-PVTZ
  Basis Set:

  -Total Gradient:
     Atom            X                  Y                   Z
    ------   -----------------  -----------------  -----------------
       1        0.000005661846    -0.000001677380     0.000003984346
       2       -0.000041095335    -0.000009792340    -0.000002519754
       3        0.000021408733    -0.000021932888     0.000001298720
       4        0.000000885747     0.000003037969     0.000004088765
       5       -0.000004011585     0.000003084615    -0.000003717271
       6        0.002611195962    -0.003648077262     0.002099275731
       7        0.001072706119    -0.001336239527     0.004315101831
       8       -0.002322333666     0.003233225577    -0.002363192777
       9        0.000005017460     0.000006860008    -0.000008172848
      10       -0.000010022351    -0.000006087373    -0.000006440612
      11       -0.001323433747     0.001781527548    -0.004009282383
      12       -0.000028239426    -0.000006980264    -0.000019553710
      13       -0.000003408599    -0.000006936115    -0.000006888802
      14        0.000011078145     0.000005741587     0.000000499595
      15        0.000004590692     0.000004245847    -0.000004480831

  **** Optimization is complete! (in 5 steps) ****
    Final optimized geometry and variables:
    Molecular point group: c1

    Geometry (in Angstrom), charge = 0, multiplicity = 1:

    H           -2.996611528510     0.268635340125     0.207863994860
    C           -2.200743679242    -0.461902509459     0.228413684468
    O           -0.994522959267     0.222365832592     0.283162381971
    H           -2.270419575605    -1.079517292076    -0.664757826489
    H           -2.336911223435    -1.101810371534     1.098055809880
    C            0.135184831117    -0.600759930087     0.325555687919
    C            1.380169972903     0.277473226615     0.302260802235
    H            0.116830010780    -1.255769435665    -0.544616818917
    H            0.106329259749    -1.218536232085     1.220532029903
    C            1.855324660577     0.600446494259    -1.112495038147
    H            1.130211715633     1.206722984648     0.799749318100
    H            2.177808422978    -0.200720201023     0.859543195766
    H            1.062955738668     1.068672811320    -1.685020793646
    H            2.699796239307     1.279775428324    -1.095093510439
    H            2.163587044377    -0.296860260390    -1.638946059132

  Mulliken Charges: (a.u.)
   Center  Symbol    Alpha    Beta     Spin     Total
       1     H     0.44731  0.44731  0.00000  0.10538
       2     C     3.03153  3.03153  0.00000 -0.06307
       3     O     4.17578  4.17578  0.00000 -0.35156
       4     H     0.47243  0.47243  0.00000  0.05515
       5     H     0.47214  0.47214  0.00000  0.05573
       6     C     2.96597  2.96597  0.00000  0.06807
       7     C     3.08081  3.08081  0.00000 -0.16162
       8     H     0.47629  0.47629  0.00000  0.04742
       9     H     0.46642  0.46642  0.00000  0.06716
      10     C     3.15109  3.15109  0.00000 -0.30219
      11     H     0.44983  0.44983  0.00000  0.10033
      12     H     0.45340  0.45340  0.00000  0.09321
      13     H     0.44927  0.44927  0.00000  0.10146
      14     H     0.44995  0.44995  0.00000  0.10010
      15     H     0.45779  0.45779  0.00000  0.08443

   Total alpha = 21.00000, Total beta = 21.00000, Total charge =  0.00000

*** Psi4 exiting successfully. Buy a developer a beer!
