  ==> Input File <==

--------------------------------------------------------------------------
set {
	reference rhf
	basis 6-31G*
}

set_num_threads( 4 )
memory 2 gb

molecule MOL {
0 1

H	 -3.455472	 0.053442	 0.207773
C	 -3.211690	 0.303595	 -0.832235
C	 -2.331353	 1.514855	 -1.006789
O	 -3.635037	 -0.361203	 -1.721375
C	 -1.054718	 1.441943	 -0.157589
H	 -2.103293	 1.622970	 -2.060833
H	 -2.915819	 2.381772	 -0.700998
C	 -0.091842	 0.335926	 -0.596789
H	 -0.550210	 2.402045	 -0.211993
H	 -1.323940	 1.300490	 0.888006
C	 1.180775	 0.282413	 0.250794
H	 0.173308	 0.488813	 -1.640900
H	 -0.593154	 -0.629074	 -0.552066
C	 2.148627	 -0.814315	 -0.201312
H	 1.671481	 1.251605	 0.210717
H	 0.912770	 0.117370	 1.293539
C	 3.580890	 -0.659131	 0.322722
H	 2.166869	 -0.852443	 -1.289387
H	 1.762857	 -1.776509	 0.128956
C	 4.324889	 0.564933	 -0.213704
H	 4.142010	 -1.551473	 0.056605
H	 3.564836	 -0.624694	 1.410140
H	 4.342616	 0.565491	 -1.300421
H	 3.866655	 1.493402	 0.110242
H	 5.353900	 0.572371	 0.132816

	symmetry c1
}
set optking {
	frozen_dihedral = ("
		8 11 14 18
	")
}

ee = optimize('scf')
oeprop('DIPOLE', 'QUADRUPOLE', 'MULLIKEN_CHARGES')
f=open( 'psi4out.xyz', 'w' )
f.write( "25  " )
f.write( str(ee) + "\n" )
f.write( MOL.save_string_xyz() )
f.close()
--------------------------------------------------------------------------

    Molecular point group: c1
  Charge       = 0
  Multiplicity = 1
  Basis Set: 6-31G*
  Basis Set:
  @DF-RHF Final Energy:  -387.12060815128092
    Total Energy =                       -387.1206081512810897
    Molecular point group: c1
  Basis Set: 6-31G*
  Basis Set:
  Basis Set: 6-31G*
  Basis Set:
  @DF-RHF Final Energy:  -387.12049092824913
    Total Energy =                       -387.1204909282498647
  Basis Set: 6-31G*
  Basis Set:
  Basis Set: 6-31G*
  Basis Set:
  @DF-RHF Final Energy:  -387.11886901050934
    Total Energy =                       -387.1188690105092292
  Basis Set: 6-31G*
  Basis Set:
  Basis Set: 6-31G*
  Basis Set:
  @DF-RHF Final Energy:  -387.12075014691624
    Total Energy =                       -387.1207501469164072
  Basis Set: 6-31G*
  Basis Set:
  @DF-RHF Final Energy:  -387.12082900281922
    Total Energy =                       -387.1208290028193915
  @DF-RHF Final Energy:  -387.12089005105508
    Total Energy =                       -387.1208900510549711
  Basis Set: 6-31G*
  Basis Set:
  @DF-RHF Final Energy:  -387.12089208951073
    Total Energy =                       -387.1208920895105621
  Basis Set: 6-31G*
  Basis Set:
  Basis Set: 6-31G*
  Basis Set:
  @DF-RHF Final Energy:  -387.12088369357133
    Total Energy =                       -387.1208836935713862
  Basis Set: 6-31G*
  Basis Set:
  Basis Set: 6-31G*
  Basis Set:
  @DF-RHF Final Energy:  -387.12089242546864
    Total Energy =                       -387.1208924254683552
  Basis Set: 6-31G*
  Basis Set:
  Charge       = 0
  Multiplicity = 1
  Basis Set: 6-31G*
  Basis Set:

    Orbital Energies (a.u.)
    -----------------------

    Doubly Occupied:

       1A    -20.561970     2A    -11.326143     3A    -11.235328
       4A    -11.234666     5A    -11.224076     6A    -11.219816
       7A    -11.218379     8A    -11.216919     9A    -11.210769
      10A     -1.401918    11A     -1.103781    12A     -1.069429
      13A     -1.013495    14A     -0.942728    15A     -0.874845
      16A     -0.819956    17A     -0.788273    18A     -0.782967
      19A     -0.664047    20A     -0.662072    21A     -0.630886
      22A     -0.626435    23A     -0.604073    24A     -0.592902
      25A     -0.575343    26A     -0.549450    27A     -0.536392
      28A     -0.523722    29A     -0.508686    30A     -0.495877
      31A     -0.490747    32A     -0.480501    33A     -0.465325
      34A     -0.457331    35A     -0.441239    36A     -0.409516

  @DF-RHF Final Energy:  -387.12089276616018

   => Energetics <=

    Nuclear Repulsion Energy =            439.2989505241422421
    One-Electron Energy =               -1394.9196832566560715
    Two-Electron Energy =                 568.4998399663535338
    DFT Exchange-Correlation Energy =       0.0000000000000000
    Empirical Dispersion Energy =           0.0000000000000000
    PCM Polarization Energy =               0.0000000000000000
    EFP Energy =                            0.0000000000000000
    Total Energy =                       -387.1208927661602957
    Molecular point group: c1
  Basis Set: 6-31G*
  Basis Set:

  -Total Gradient:
     Atom            X                  Y                   Z
    ------   -----------------  -----------------  -----------------
       1       -0.000003133940    -0.000004525330    -0.000001751736
       2       -0.000004664294     0.000002642036     0.000003826375
       3        0.000007621158    -0.000001269978    -0.000010218328
       4        0.000000897321    -0.000001584256     0.000005401899
       5       -0.000007118363    -0.000018635195     0.000026410047
       6        0.000002375124    -0.000001460172    -0.000001674078
       7        0.000010831599     0.000003356520     0.000002792592
       8        0.000998296826     0.001461036964    -0.001429452946
       9       -0.000003169184    -0.000003523758    -0.000006520932
      10       -0.000003303912     0.000003481388     0.000007110029
      11       -0.001909819681    -0.002493071474     0.001946263791
      12        0.000008851929    -0.000009196673    -0.000007834375
      13       -0.000004541258     0.000007694386     0.000004668500
      14        0.003217253644     0.003085967945    -0.000577786945
      15       -0.000002198903     0.000004673910     0.000002041146
      16        0.000006771218    -0.000009966769    -0.000002166210
      17       -0.000018702944     0.000028164710     0.000022909835
      18       -0.002304204401    -0.002047897918     0.000041746442
      19       -0.000010653842    -0.000006113777    -0.000003161846
      20        0.000019567207    -0.000001527180    -0.000015316433
      21       -0.000013778289     0.000010262700    -0.000010627114
      22        0.000001427793    -0.000015764047     0.000010956346
      23        0.000010068090     0.000007988293    -0.000005301382
      24       -0.000001421289    -0.000011199024    -0.000000852694
      25        0.000002748402     0.000010466697    -0.000001461980

  **** Optimization is complete! (in 10 steps) ****
    Final optimized geometry and variables:
    Molecular point group: c1

    Geometry (in Angstrom), charge = 0, multiplicity = 1:

    H           -3.573633301376    -0.318730364935     0.624745769557
    C           -3.319593028759    -0.014100632546    -0.398226203534
    C           -2.464686063931     1.223416121941    -0.500973328986
    O           -3.719224075093    -0.641801965409    -1.324574583164
    C           -1.198076927086     1.137485369979     0.362019117448
    H           -2.225013332926     1.387573406005    -1.545215357497
    H           -3.072742054639     2.061330957747    -0.162344047106
    C           -0.202371931689     0.078814597841    -0.118350086513
    H           -0.716451391362     2.111095238033     0.364365869658
    H           -1.477803084966     0.936106138222     1.394718618707
    C            1.070767969054     0.029085670339     0.728490201304
    H            0.063984089334     0.283167955087    -1.152929343239
    H           -0.676821828410    -0.901304883476    -0.117628783087
    C            2.044285035402    -1.067835851097     0.280269055870
    H            1.553515550182     1.001972021785     0.676724338996
    H            0.814240577065    -0.125680132384     1.774685692470
    C            3.468086440364    -0.928465633087     0.830133896764
    H            2.068571566973    -1.114740350868    -0.807037414999
    H            1.641912214111    -2.027891572042     0.597646615294
    C            4.274969307318     0.216358508586     0.214529407237
    H            3.999955531296    -1.859860963780     0.653805715357
    H            3.425912322118    -0.804396807789     1.910506278887
    H            4.353578180076     0.100177610901    -0.862893272590
    H            3.826603767826     1.184791387597     0.410358061046
    H            5.282660357247     0.238023576878     0.617989841621

  Mulliken Charges: (a.u.)
   Center  Symbol    Alpha    Beta     Spin     Total
       1     H     0.43261  0.43261  0.00000  0.13478
       2     C     2.83079  2.83079  0.00000  0.33843
       3     C     3.20819  3.20819  0.00000 -0.41638
       4     O     4.23776  4.23776  0.00000 -0.47553
       5     C     3.16667  3.16667  0.00000 -0.33334
       6     H     0.39973  0.39973  0.00000  0.20055
       7     H     0.40659  0.40659  0.00000  0.18682
       8     C     3.15546  3.15546  0.00000 -0.31092
       9     H     0.41294  0.41294  0.00000  0.17412
      10     H     0.41953  0.41953  0.00000  0.16094
      11     C     3.15399  3.15399  0.00000 -0.30797
      12     H     0.41764  0.41764  0.00000  0.16472
      13     H     0.41859  0.41859  0.00000  0.16282
      14     C     3.15432  3.15432  0.00000 -0.30864
      15     H     0.42169  0.42169  0.00000  0.15661
      16     H     0.42244  0.42244  0.00000  0.15512
      17     C     3.15343  3.15343  0.00000 -0.30685
      18     H     0.42224  0.42224  0.00000  0.15551
      19     H     0.42050  0.42050  0.00000  0.15900
      20     C     3.24058  3.24058  0.00000 -0.48117
      21     H     0.41980  0.41980  0.00000  0.16039
      22     H     0.42315  0.42315  0.00000  0.15370
      23     H     0.42139  0.42139  0.00000  0.15723
      24     H     0.42128  0.42128  0.00000  0.15744
      25     H     0.41869  0.41869  0.00000  0.16262

   Total alpha = 36.00000, Total beta = 36.00000, Total charge =  0.00000
