                              Psi4 1.0.54 Driver

  ==> Input File <==

--------------------------------------------------------------------------
set {
	reference rhf
	basis cc-pvtz
}

set_num_threads( 4 )
memory 2 gb

molecule MOL {
0 1

H	 -2.123894	 -0.667238	 -0.609809
O	 -2.041679	 -0.058866	 0.103463
C	 -0.959304	 0.780994	 -0.094939
C	 0.354905	 0.037902	 -0.006215
H	 -0.985899	 1.279578	 -1.057596
H	 -0.969809	 1.529522	 0.682889
F	 0.872841	 0.135599	 1.205391
F	 0.174976	 -1.241456	 -0.260118
F	 1.247587	 0.493905	 -0.851881

	symmetry c1
}
set optking {
	frozen_dihedral = ("
		7 4 3 5
	")
}

ee,wfn = optimize('scf', return_wfn=True)
oeprop( wfn, 'DIPOLE', 'QUADRUPOLE', 'MULLIKEN_CHARGES')
f=open( 'psi4out.xyz', 'w' )
f.write( "9  " )
f.write( str(ee) + "\n" )
f.write( MOL.save_string_xyz() )
f.close()
--------------------------------------------------------------------------

    Molecular point group: c1
  Charge       = 0
  Multiplicity = 1
  Basis Set: CC-PVTZ
  Basis Set:
  @DF-RHF Final Energy:  -450.84181202131157
    Total Energy =                       -450.8418120213115117
    Molecular point group: c1
  Basis Set: CC-PVTZ
  Basis Set:
  Basis Set: CC-PVTZ
  Basis Set:
  @DF-RHF Final Energy:  -450.84258690048506
    Total Energy =                       -450.8425869004848892
  Basis Set: CC-PVTZ
  Basis Set:
  Basis Set: CC-PVTZ
  Basis Set:
  @DF-RHF Final Energy:  -450.84300608437110
    Total Energy =                       -450.8430060843706997
  Basis Set: CC-PVTZ
  Basis Set:
  Basis Set: CC-PVTZ
  Basis Set:
  @DF-RHF Final Energy:  -450.84303471590204
    Total Energy =                       -450.8430347159016947
  Basis Set: CC-PVTZ
  Basis Set:
  Basis Set: CC-PVTZ
  Basis Set:
  @DF-RHF Final Energy:  -450.84303745881869
    Total Energy =                       -450.8430374588187419
  Basis Set: CC-PVTZ
  Basis Set:
  Charge       = 0
  Multiplicity = 1
  Basis Set: CC-PVTZ
  Basis Set:

    Orbital Energies (a.u.)
    -----------------------

    Doubly Occupied:

       1A    -26.342671     2A    -26.336661     3A    -26.336179
       4A    -20.583748     5A    -11.495651     6A    -11.309770
       7A     -1.748545     8A     -1.646957     9A     -1.641111
      10A     -1.407362    11A     -1.047503    12A     -0.930642
      13A     -0.837853    14A     -0.835662    15A     -0.815092
      16A     -0.729177    17A     -0.719954    18A     -0.704264
      19A     -0.672762    20A     -0.665816    21A     -0.648979
      22A     -0.632010    23A     -0.619822    24A     -0.530069
      25A     -0.484585

  @DF-RHF Final Energy:  -450.84303772585076

   => Energetics <=

    Nuclear Repulsion Energy =            276.9431664006128813
    One-Electron Energy =               -1176.1267204784833211
    Two-Electron Energy =                 448.3405163520194492
    DFT Exchange-Correlation Energy =       0.0000000000000000
    Empirical Dispersion Energy =           0.0000000000000000
    PCM Polarization Energy =               0.0000000000000000
    EFP Energy =                            0.0000000000000000
    Total Energy =                       -450.8430377258509907
    Molecular point group: c1
  Basis Set: CC-PVTZ
  Basis Set:

  -Total Gradient:
     Atom            X                  Y                   Z
    ------   -----------------  -----------------  -----------------
       1       -0.000022052328    -0.000011161074    -0.000002709277
       2        0.000038634115     0.000009443837    -0.000007047336
       3       -0.002101624593    -0.004154207953    -0.003171786386
       4       -0.002587547700    -0.004280211654     0.002052680482
       5        0.002334412806     0.004447167941     0.002311630954
       6       -0.000003482480     0.000019414952    -0.000000697579
       7        0.002312148638     0.003887454333    -0.001190702580
       8       -0.000019242504     0.000037982813     0.000035520082
       9        0.000048754042     0.000044116809    -0.000026888360

  **** Optimization is complete! (in 6 steps) ****
    Final optimized geometry and variables:
    Molecular point group: c1

    Geometry (in Angstrom), charge = 0, multiplicity = 1:

    H           -2.131666119405    -0.696376730071    -0.555885320640
    O           -2.072053100844    -0.019757889989     0.095059158987
    C           -0.966753943632     0.778844836151    -0.126343005188
    C            0.355422576676     0.024633441845    -0.006996545418
    H           -0.973020166071     1.284584165925    -1.084786058892
    H           -0.964130112485     1.543603753744     0.635835198553
    F            0.865155801807     0.096147543228     1.202788235024
    F            0.229276599464    -1.246362998048    -0.321221842008
    F            1.252024999902     0.546259105555    -0.824071533111

  Mulliken Charges: (a.u.)
   Center  Symbol    Alpha    Beta     Spin     Total
       1     H     0.38605  0.38605  0.00000  0.22790
       2     O     4.18835  4.18835  0.00000 -0.37671
       3     C     3.00113  3.00113  0.00000 -0.00226
       4     C     2.67855  2.67855  0.00000  0.64291
       5     H     0.46236  0.46236  0.00000  0.07528
       6     H     0.44894  0.44894  0.00000  0.10211
       7     F     4.60894  4.60894  0.00000 -0.21788
       8     F     4.61253  4.61253  0.00000 -0.22505
       9     F     4.61315  4.61315  0.00000 -0.22630

   Total alpha = 25.00000, Total beta = 25.00000, Total charge = -0.00000

*** Psi4 exiting successfully. Buy a developer a beer!
