  ==> Input File <==

--------------------------------------------------------------------------
set {
	reference rhf
	basis 6-31G*
}

set_num_threads( 4 )
memory 2 gb

molecule MOL {
0 1

O	 -2.821601	 1.309235	 -0.001213
C	 -2.668563	 0.129746	 -0.000350
C	 -3.801572	 -0.864014	 -0.000442
O	 -1.481751	 -0.454642	 0.000584
H	 -4.417280	 -0.689587	 -0.874708
H	 -3.443784	 -1.883046	 -0.000565
H	 -4.417179	 -0.689832	 0.873954
C	 -0.334255	 0.388708	 0.000906
C	 0.891947	 -0.504646	 0.000751
H	 -0.365390	 1.025305	 -0.873475
H	 -0.365484	 1.024911	 0.875569
C	 2.191998	 0.301789	 0.000897
H	 0.855148	 -1.151283	 -0.871571
H	 0.855132	 -1.151660	 0.872805
C	 3.441114	 -0.581407	 0.000108
H	 2.215074	 0.954890	 -0.869742
H	 2.215465	 0.953923	 0.872248
C	 4.657939	 0.109198	 -0.614114
H	 3.232181	 -1.498645	 -0.545874
H	 3.671266	 -0.879041	 1.020654
H	 4.470374	 0.389088	 -1.646826
H	 5.526747	 -0.541358	 -0.600525
H	 4.912966	 1.013137	 -0.068344

	symmetry c1
}
set optking {
	frozen_dihedral = ("
		19 15 12 16
	")
}

ee = optimize('scf')
oeprop('DIPOLE', 'QUADRUPOLE', 'MULLIKEN_CHARGES')
f=open( 'psi4out.xyz', 'w' )
f.write( "23  " )
f.write( str(ee) + "\n" )
f.write( MOL.save_string_xyz() )
f.close()
--------------------------------------------------------------------------

    Molecular point group: c1
  Charge       = 0
  Multiplicity = 1
  Basis Set: 6-31G*
  Basis Set:
  @DF-RHF Final Energy:  -422.97722670614212
    Total Energy =                       -422.9772267061418916
    Molecular point group: c1
  Basis Set: 6-31G*
  Basis Set:
  Basis Set: 6-31G*
  Basis Set:
  @DF-RHF Final Energy:  -422.97746355885403
    Total Energy =                       -422.9774635588545380
  Basis Set: 6-31G*
  Basis Set:
  Basis Set: 6-31G*
  Basis Set:
  @DF-RHF Final Energy:  -422.97752052186217
    Total Energy =                       -422.9775205218625160
  Basis Set: 6-31G*
  Basis Set:
  Basis Set: 6-31G*
  Basis Set:
  @DF-RHF Final Energy:  -422.97737108899622
    Total Energy =                       -422.9773710889960512
  Basis Set: 6-31G*
  Basis Set:
  Basis Set: 6-31G*
  Basis Set:
  @DF-RHF Final Energy:  -422.97752590659178
    Total Energy =                       -422.9775259065918362
  Basis Set: 6-31G*
  Basis Set:
  Charge       = 0
  Multiplicity = 1
  Basis Set: 6-31G*
  Basis Set:

    Orbital Energies (a.u.)
    -----------------------

    Doubly Occupied:

       1A    -20.603088     2A    -20.540598     3A    -11.374146
       4A    -11.281533     5A    -11.232428     6A    -11.224739
       7A    -11.223688     8A    -11.221490     9A    -11.213386
      10A     -1.468041    11A     -1.360813    12A     -1.093692
      13A     -1.042034    14A     -1.003594    15A     -0.931034
      16A     -0.842425    17A     -0.803144    18A     -0.774605
      19A     -0.691851    20A     -0.685210    21A     -0.668364
      22A     -0.642890    23A     -0.606682    24A     -0.589686
      25A     -0.582492    26A     -0.568743    27A     -0.556419
      28A     -0.537071    29A     -0.523621    30A     -0.504991
      31A     -0.493445    32A     -0.479010    33A     -0.466372
      34A     -0.465387    35A     -0.451345    36A     -0.435449

  @DF-RHF Final Energy:  -422.97752606273110

   => Energetics <=

    Nuclear Repulsion Energy =            449.6046410106071676
    One-Electron Energy =               -1466.7973161045765664
    Two-Electron Energy =                 594.2151490312382975
    DFT Exchange-Correlation Energy =       0.0000000000000000
    Empirical Dispersion Energy =           0.0000000000000000
    PCM Polarization Energy =               0.0000000000000000
    EFP Energy =                            0.0000000000000000
    Total Energy =                       -422.9775260627311582
    Molecular point group: c1
  Basis Set: 6-31G*
  Basis Set:

  -Total Gradient:
     Atom            X                  Y                   Z
    ------   -----------------  -----------------  -----------------
       1        0.000001774548     0.000000274081     0.000058075961
       2       -0.000002304483     0.000005584303    -0.000146528809
       3        0.000001674079    -0.000001911010     0.000050267405
       4        0.000014671428    -0.000007568101     0.000053674689
       5        0.000009389037     0.000005417043    -0.000001313888
       6        0.000000132566    -0.000000287234     0.000001735594
       7       -0.000007518615    -0.000004457568    -0.000000984081
       8        0.000018280516     0.000028960134    -0.000003456312
       9        0.000054538984    -0.000042080381    -0.000077734731
      10        0.000001265966    -0.000009794318     0.000003856480
      11       -0.000004330680     0.000004544679     0.000003036779
      12       -0.002644094199    -0.004023444117    -0.001814663559
      13       -0.000039039434     0.000004483077    -0.000012208309
      14        0.000037633704     0.000006147581    -0.000017884316
      15        0.002083933607     0.002903617350    -0.003679071310
      16        0.001927756446     0.002816586241     0.002135015707
      17        0.000030631852     0.000024042666     0.000043264284
      18       -0.000072825051     0.000020713191    -0.000061514166
      19       -0.001357868623    -0.001706802764     0.003398666268
      20       -0.000019793496    -0.000001076260     0.000062530182
      21        0.000023783214     0.000006756017    -0.000012768549
      22       -0.000031470688    -0.000013173571     0.000015685480
      23       -0.000026220667    -0.000016531038     0.000002319199

  **** Optimization is complete! (in 6 steps) ****
    Final optimized geometry and variables:
    Molecular point group: c1

    Geometry (in Angstrom), charge = 0, multiplicity = 1:

    O           -2.815225941595     1.323523622628     0.121500147437
    C           -2.663658141433     0.144118477908     0.096213052109
    C           -3.797688234597    -0.848463860013     0.099698998431
    O           -1.477784572669    -0.441274001622     0.063036073345
    H           -4.430709558743    -0.656489531535    -0.758366383758
    H           -3.441266851331    -1.867616555181     0.072542678235
    H           -4.395273981166    -0.690801066318     0.989595018498
    C           -0.329459874614     0.400904044581     0.057164721835
    C            0.895164727683    -0.493433086773     0.018444342439
    H           -0.375454605650     1.052903880226    -0.805186752521
    H           -0.343730149488     1.021491596418     0.943347810896
    C            2.195261442421     0.309702843469    -0.000588498507
    H            0.838952278152    -1.129605954709    -0.860315710601
    H            0.878225545435    -1.151102890974     0.883445932912
    C            3.452465902401    -0.569362997648     0.047889700583
    H            2.231395128164     0.955055002459    -0.876422877722
    H            2.212941733872     0.989022947279     0.850344922282
    C            4.699215998604     0.126329503492    -0.492316595388
    H            3.273377850576    -1.498069672648    -0.489208847412
    H            3.627875296133    -0.869777263965     1.078756754436
    H            4.583799908412     0.377530312876    -1.542693124354
    H            5.575506039932    -0.506926025871    -0.396393615536
    H            4.896665392355     1.048235972351     0.047597107863

  Mulliken Charges: (a.u.)
   Center  Symbol    Alpha    Beta     Spin     Total
       1     O     4.28388  4.28388  0.00000 -0.56777
       2     C     2.61532  2.61532  0.00000  0.76937
       3     C     3.28775  3.28775  0.00000 -0.57549
       4     O     4.31271  4.31271  0.00000 -0.62542
       5     H     0.39750  0.39750  0.00000  0.20501
       6     H     0.39986  0.39986  0.00000  0.20028
       7     H     0.39748  0.39748  0.00000  0.20504
       8     C     2.99593  2.99593  0.00000  0.00813
       9     C     3.16548  3.16548  0.00000 -0.33096
      10     H     0.41055  0.41055  0.00000  0.17889
      11     H     0.41053  0.41053  0.00000  0.17894
      12     C     3.16165  3.16165  0.00000 -0.32329
      13     H     0.41372  0.41372  0.00000  0.17257
      14     H     0.41407  0.41407  0.00000  0.17186
      15     C     3.15244  3.15244  0.00000 -0.30489
      16     H     0.42001  0.42001  0.00000  0.15999
      17     H     0.42014  0.42014  0.00000  0.15971
      18     C     3.24018  3.24018  0.00000 -0.48036
      19     H     0.42084  0.42084  0.00000  0.15832
      20     H     0.42059  0.42059  0.00000  0.15883
      21     H     0.42057  0.42057  0.00000  0.15886
      22     H     0.41823  0.41823  0.00000  0.16355
      23     H     0.42058  0.42058  0.00000  0.15885

   Total alpha = 36.00000, Total beta = 36.00000, Total charge = -0.00000
