  ==> Input File <==

--------------------------------------------------------------------------
set {
	reference rhf
	basis cc-pvtz
}

set_num_threads( 4 )
memory 2 gb

molecule MOL {
0 1

O	 -1.510770	 1.240811	 -0.054933
C	 -1.081510	 0.147522	 0.122720
C	 0.327029	 -0.064006	 0.641890
C	 -1.903028	 -1.084121	 -0.174656
C	 1.349460	 -0.017068	 -0.500215
H	 0.399029	 -1.014606	 1.159950
H	 0.538021	 0.726928	 1.350471
C	 2.683024	 -0.646386	 -0.113809
H	 0.949573	 -0.527743	 -1.371501
H	 1.499988	 1.016873	 -0.787676
H	 3.389739	 -0.589969	 -0.933200
H	 2.563062	 -1.691883	 0.149435
H	 3.121078	 -0.138192	 0.738082
H	 -1.341891	 -1.779207	 -0.789259
H	 -2.820449	 -0.808163	 -0.671328
H	 -2.133314	 -1.593056	 0.755831

	symmetry c1
}
set optking {
	frozen_dihedral = ("
		9 5 3 2
	")
}

ee = optimize('scf')
oeprop('DIPOLE', 'QUADRUPOLE', 'MULLIKEN_CHARGES')
f=open( 'psi4out.xyz', 'w' )
f.write( "16  " )
f.write( str(ee) + "\n" )
f.write( MOL.save_string_xyz() )
f.close()
--------------------------------------------------------------------------

    Molecular point group: c1
  Charge       = 0
  Multiplicity = 1
  Basis Set: CC-PVTZ
  Basis Set:
  @DF-RHF Final Energy:  -270.12814546491666
    Total Energy =                       -270.1281454649164857
    Molecular point group: c1
  Basis Set: CC-PVTZ
  Basis Set:
  Basis Set: CC-PVTZ
  Basis Set:
  @DF-RHF Final Energy:  -270.12827428936919
    Total Energy =                       -270.1282742893690738
  Basis Set: CC-PVTZ
  Basis Set:
  Basis Set: CC-PVTZ
  Basis Set:
  @DF-RHF Final Energy:  -270.12724645057472
    Total Energy =                       -270.1272464505746598
  Basis Set: CC-PVTZ
  Basis Set:
  Basis Set: CC-PVTZ
  Basis Set:
  @DF-RHF Final Energy:  -270.12833314091046
    Total Energy =                       -270.1283331409103994
  Basis Set: CC-PVTZ
  Basis Set:
  Basis Set: CC-PVTZ
  Basis Set:
  @DF-RHF Final Energy:  -270.12834382329186
    Total Energy =                       -270.1283438232916296
  Basis Set: CC-PVTZ
  Basis Set:
  Basis Set: CC-PVTZ
  Basis Set:
  @DF-RHF Final Energy:  -270.12834596193375
    Total Energy =                       -270.1283459619335758
  Basis Set: CC-PVTZ
  Basis Set:
  Basis Set: CC-PVTZ
  Basis Set:
  @DF-RHF Final Energy:  -270.12834741610300
    Total Energy =                       -270.1283474161029403
  Basis Set: CC-PVTZ
  Basis Set:
  Charge       = 0
  Multiplicity = 1
  Basis Set: CC-PVTZ
  Basis Set:

    Orbital Energies (a.u.)
    -----------------------

    Doubly Occupied:

       1A    -20.537210     2A    -11.319723     3A    -11.232369
       4A    -11.228603     5A    -11.227342     6A    -11.218830
       7A     -1.397158     8A     -1.084371     9A     -1.014000
      10A     -0.951314    11A     -0.830965    12A     -0.736935
      13A     -0.658697    14A     -0.653227    15A     -0.614582
      16A     -0.607112    17A     -0.579444    18A     -0.561152
      19A     -0.534916    20A     -0.522612    21A     -0.506366
      22A     -0.483703    23A     -0.475277    24A     -0.400389

  @DF-RHF Final Energy:  -270.12834751548945

   => Energetics <=

    Nuclear Repulsion Energy =            237.6711205583691253
    One-Electron Energy =                -836.8463400908790391
    Two-Electron Energy =                 329.0468720170203483
    DFT Exchange-Correlation Energy =       0.0000000000000000
    Empirical Dispersion Energy =           0.0000000000000000
    PCM Polarization Energy =               0.0000000000000000
    EFP Energy =                            0.0000000000000000
    Total Energy =                       -270.1283475154895655
    Molecular point group: c1
  Basis Set: CC-PVTZ
  Basis Set:

  -Total Gradient:
     Atom            X                  Y                   Z
    ------   -----------------  -----------------  -----------------
       1       -0.000001441822    -0.000016274911    -0.000003618804
       2       -0.000260002354    -0.002288202226    -0.000238542478
       3        0.000033294155     0.003813480115     0.000078502726
       4       -0.000002068863    -0.000014312643     0.000007000312
       5        0.001508740932    -0.004298637689     0.001266643264
       6        0.000001576139     0.000001754131     0.000000922005
       7        0.000000876753     0.000000615991    -0.000005822591
       8       -0.000014221556     0.000008887272    -0.000005297525
       9       -0.001276645523     0.002792403345    -0.001099279157
      10        0.000001080819     0.000000502811     0.000004698902
      11        0.000003163894    -0.000000394293     0.000000077544
      12        0.000000282785    -0.000001978391    -0.000000204819
      13        0.000003501496    -0.000001474617     0.000001991346
      14       -0.000000314104     0.000001300740    -0.000002634847
      15        0.000001796454     0.000001655070    -0.000001430180
      16        0.000000380793     0.000000675295    -0.000003005698

  **** Optimization is complete! (in 8 steps) ****
    Final optimized geometry and variables:
    Molecular point group: c1

    Geometry (in Angstrom), charge = 0, multiplicity = 1:

    O           -1.513590510342     1.325324956804     0.021075825503
    C           -1.063507337116     0.233841848414     0.152989655334
    C            0.347440873441     0.018534329254     0.660006802959
    C           -1.866565015359    -0.998985385813    -0.190235151995
    C            1.357195479339     0.024363402780    -0.498721652827
    H            0.401033287542    -0.931002597342     1.183324929485
    H            0.583445349446     0.806573310972     1.362444602048
    C            2.706138779185    -0.568919984943    -0.113734292558
    H            0.945311919971    -0.501906834929    -1.354685757903
    H            1.487437820914     1.049080328173    -0.827862708249
    H            3.406694151255    -0.507929686443    -0.938035460927
    H            2.611065160729    -1.612590896264     0.165855213046
    H            3.137955818756    -0.038848824416     0.728289193616
    H           -1.284863232878    -1.688308426444    -0.791109702232
    H           -2.768271334386    -0.719930770291    -0.713300884789
    H           -2.128503483515    -1.515314564660     0.727887763900

  Mulliken Charges: (a.u.)
   Center  Symbol    Alpha    Beta     Spin     Total
       1     O     4.17649  4.17649  0.00000 -0.35298
       2     C     2.85817  2.85817  0.00000  0.28366
       3     C     3.09784  3.09784  0.00000 -0.19568
       4     C     3.15549  3.15549  0.00000 -0.31098
       5     C     3.09095  3.09095  0.00000 -0.18189
       6     H     0.45209  0.45209  0.00000  0.09583
       7     H     0.43800  0.43800  0.00000  0.12400
       8     C     3.14926  3.14926  0.00000 -0.29853
       9     H     0.45171  0.45171  0.00000  0.09658
      10     H     0.44210  0.44210  0.00000  0.11580
      11     H     0.44614  0.44614  0.00000  0.10772
      12     H     0.45513  0.45513  0.00000  0.08974
      13     H     0.45193  0.45193  0.00000  0.09613
      14     H     0.45085  0.45085  0.00000  0.09829
      15     H     0.43593  0.43593  0.00000  0.12815
      16     H     0.44792  0.44792  0.00000  0.10415

   Total alpha = 24.00000, Total beta = 24.00000, Total charge = -0.00000
