  ==> Input File <==

--------------------------------------------------------------------------
set {
	reference rhf
	basis 6-31G*
}

set_num_threads( 1 )
memory 2 gb

molecule MOL {
0 1

H	 1.263355	 -1.054259	 -0.166495
O	 1.184293	 -0.460409	 -0.900623
C	 0.613939	 0.736927	 -0.458981
C	 -0.793441	 0.596080	 0.058728
H	 0.623376	 1.408365	 -1.310030
H	 1.232377	 1.199958	 0.309239
C	 -1.530462	 -0.493172	 -0.025500
H	 -1.196888	 1.480801	 0.526684
H	 -1.092586	 -1.461565	 -0.186463
H	 -2.602122	 -0.450675	 0.050101

	symmetry c1
}
set optking {
	frozen_dihedral = ("
		5 3 2 1,
		5 3 4 7
	")
}

ee = energy('scf')
oeprop('DIPOLE', 'QUADRUPOLE', 'MULLIKEN_CHARGES')
f=open( 'psi4out.xyz', 'w' )
f.write( "10  " )
f.write( str(ee) + "\n" )
f.write( MOL.save_string_xyz() )
f.close()
--------------------------------------------------------------------------

    Molecular point group: c1

    Geometry (in Angstrom), charge = 0, multiplicity = 1:

       Center              X                  Y                   Z               Mass
    ------------   -----------------  -----------------  -----------------  -----------------
           H          1.321300422098    -1.120508196920     0.183208921874     1.007825032070
           O          1.242238422098    -0.526658196920    -0.550919078126    15.994914619560
           C          0.671884422098     0.670677803080    -0.109277078126    12.000000000000
           C         -0.735495577902     0.529830803080     0.408431921874    12.000000000000
           H          0.681321422098     1.342115803080    -0.960326078126     1.007825032070
           H          1.290322422098     1.133708803080     0.658942921874     1.007825032070
           C         -1.472516577902    -0.559421196920     0.324203921874    12.000000000000
           H         -1.138942577902     1.414551803080     0.876387921874     1.007825032070
           H         -1.034640577902    -1.527814196920     0.163240921874     1.007825032070
           H         -2.544176577902    -0.516924196920     0.399804921874     1.007825032070

  Charge       = 0
  Multiplicity = 1
  Basis Set: 6-31G*
  Basis Set:

    Orbital Energies (a.u.)
    -----------------------

    Doubly Occupied:

       1A    -20.560458     2A    -11.278725     3A    -11.231117
       4A    -11.220267     5A     -1.369164     6A     -1.058137
       7A     -0.928807     8A     -0.768768     9A     -0.688788
      10A     -0.660202    11A     -0.614895    12A     -0.570035
      13A     -0.545602    14A     -0.490740    15A     -0.450234
      16A     -0.355227

  @DF-RHF Final Energy:  -191.90691571717520

   => Energetics <=

    Nuclear Repulsion Energy =            119.3734091408843057
    One-Electron Energy =                -496.9783316339204475
    Two-Electron Energy =                 185.6980067758608470
    DFT Exchange-Correlation Energy =       0.0000000000000000
    Empirical Dispersion Energy =           0.0000000000000000
    PCM Polarization Energy =               0.0000000000000000
    EFP Energy =                            0.0000000000000000
    Total Energy =                       -191.9069157171753091

  Mulliken Charges: (a.u.)
   Center  Symbol    Alpha    Beta     Spin     Total
       1     H     0.28064  0.28064  0.00000  0.43872
       2     O     4.36635  4.36635  0.00000 -0.73270
       3     C     2.99920  2.99920  0.00000  0.00159
       4     C     3.09532  3.09532  0.00000 -0.19065
       5     H     0.40632  0.40632  0.00000  0.18737
       6     H     0.42794  0.42794  0.00000  0.14413
       7     C     3.19235  3.19235  0.00000 -0.38471
       8     H     0.40992  0.40992  0.00000  0.18017
       9     H     0.41245  0.41245  0.00000  0.17509
      10     H     0.40951  0.40951  0.00000  0.18099

   Total alpha = 16.00000, Total beta = 16.00000, Total charge = -0.00000
