                              Psi4 1.0.54 Driver

  ==> Input File <==

--------------------------------------------------------------------------
set {
	reference rhf
	basis cc-pvtz
}

set_num_threads( 4 )
memory 2 gb

molecule MOL {
0 1

H	 3.273419	 0.176595	 -0.102789
N	 2.433987	 -0.362316	 -0.080024
C	 1.263552	 0.494993	 0.021953
H	 2.497638	 -0.973615	 0.707122
C	 -0.016533	 -0.325589	 -0.026925
H	 1.280915	 1.180773	 -0.818522
H	 1.263064	 1.106893	 0.925038
C	 -1.280353	 0.525521	 0.047747
H	 -0.016686	 -0.912532	 -0.939714
H	 -0.014099	 -1.037598	 0.796369
C	 -2.326498	 0.132606	 -0.990130
H	 -1.017160	 1.571287	 -0.086671
H	 -1.713223	 0.446211	 1.041330
H	 -1.935184	 0.233432	 -1.996825
H	 -3.209365	 0.756884	 -0.914139
H	 -2.638372	 -0.898428	 -0.860191

	symmetry c1
}
set optking {
	frozen_dihedral = ("
		12 8 5 9
	")
}

ee,wfn = optimize('scf', return_wfn=True)
oeprop( wfn, 'DIPOLE', 'QUADRUPOLE', 'MULLIKEN_CHARGES')
f=open( 'psi4out.xyz', 'w' )
f.write( "16  " )
f.write( str(ee) + "\n" )
f.write( MOL.save_string_xyz() )
f.close()
--------------------------------------------------------------------------

    Molecular point group: c1
  Charge       = 0
  Multiplicity = 1
  Basis Set: CC-PVTZ
  Basis Set:
  @DF-RHF Final Energy:  -212.39555835811663
    Total Energy =                       -212.3955583581166593
    Molecular point group: c1
  Basis Set: CC-PVTZ
  Basis Set:
  Basis Set: CC-PVTZ
  Basis Set:
  @DF-RHF Final Energy:  -212.39580349451131
    Total Energy =                       -212.3958034945111990
  Basis Set: CC-PVTZ
  Basis Set:
  Basis Set: CC-PVTZ
  Basis Set:
  @DF-RHF Final Energy:  -212.39585684998801
    Total Energy =                       -212.3958568499879220
  Basis Set: CC-PVTZ
  Basis Set:
  Charge       = 0
  Multiplicity = 1
  Basis Set: CC-PVTZ
  Basis Set:

    Orbital Energies (a.u.)
    -----------------------

    Doubly Occupied:

       1A    -15.526666     2A    -11.238809     3A    -11.212807
       4A    -11.207681     5A    -11.205974     6A     -1.178587
       7A     -1.058252     8A     -0.959675     9A     -0.845773
      10A     -0.792484    11A     -0.664150    12A     -0.628073
      13A     -0.617690    14A     -0.578782    15A     -0.559898
      16A     -0.529128    17A     -0.499842    18A     -0.472815
      19A     -0.464017    20A     -0.455789    21A     -0.384132

  @DF-RHF Final Energy:  -212.39585784963063

   => Energetics <=

    Nuclear Repulsion Energy =            186.6304547262814992
    One-Electron Energy =                -655.8905799463202584
    Two-Electron Energy =                 256.8642673704080153
    DFT Exchange-Correlation Energy =       0.0000000000000000
    Empirical Dispersion Energy =           0.0000000000000000
    PCM Polarization Energy =               0.0000000000000000
    EFP Energy =                            0.0000000000000000
    Total Energy =                       -212.3958578496307155
    Molecular point group: c1
  Basis Set: CC-PVTZ
  Basis Set:

  -Total Gradient:
     Atom            X                  Y                   Z
    ------   -----------------  -----------------  -----------------
       1        0.000053926758    -0.000013877188     0.000004874913
       2        0.000066650277    -0.000026568631    -0.000026277620
       3       -0.000022079236     0.000031371111     0.000024885916
       4        0.000003797909     0.000001025454     0.000008770926
       5        0.001808783474     0.002871126910    -0.001077802744
       6       -0.000019666054    -0.000005251045     0.000006951591
       7       -0.000017395024    -0.000011728207    -0.000020655601
       8       -0.000836081729    -0.000895324320    -0.003317490058
       9       -0.001413497224    -0.002230456876     0.001463428049
      10        0.000008462898     0.000023413087    -0.000009363492
      11       -0.000051500110    -0.000011692748    -0.000035187758
      12        0.000385197891     0.000255669602     0.002960490685
      13        0.000002468162    -0.000008895099    -0.000019980587
      14        0.000005744021     0.000004362883     0.000025234936
      15        0.000005742845     0.000000454519     0.000011846745
      16        0.000019445144     0.000016370547     0.000000274099

  **** Optimization is complete! (in 4 steps) ****
    Final optimized geometry and variables:
    Molecular point group: c1

    Geometry (in Angstrom), charge = 0, multiplicity = 1:

    H            3.238711410423     0.080554997499     0.148010731758
    N            2.397177354750    -0.455651741144     0.150949384886
    C            1.227070120606     0.403745979203     0.222554256572
    H            2.439714274346    -1.067015547509     0.939467192710
    C           -0.054197242241    -0.412010551820     0.146335171096
    H            1.263333130661     1.087489180028    -0.619111992419
    H            1.204541301732     1.018966056290     1.123523053091
    C           -1.330847251660     0.443420538588     0.230113432623
    H           -0.048343090029    -0.999231011539    -0.765180344092
    H           -0.052503398450    -1.139254145284     0.954632187383
    C           -2.403421402565     0.041237444745    -0.775890952665
    H           -1.078929545605     1.491898857543     0.098986542125
    H           -1.744393302369     0.377639372206     1.231549034371
    H           -2.044515859376     0.152954685555    -1.793437841102
    H           -3.293675922565     0.650424199156    -0.667534996884
    H           -2.693060126696    -0.995776479548    -0.642070981257

  Mulliken Charges: (a.u.)
   Center  Symbol    Alpha    Beta     Spin     Total
       1     H     0.43021  0.43021  0.00000  0.13958
       2     N     3.68986  3.68986  0.00000 -0.37973
       3     C     3.02561  3.02561  0.00000 -0.05123
       4     H     0.43076  0.43076  0.00000  0.13849
       5     C     3.08431  3.08431  0.00000 -0.16862
       6     H     0.45686  0.45686  0.00000  0.08629
       7     H     0.46763  0.46763  0.00000  0.06474
       8     C     3.09239  3.09239  0.00000 -0.18479
       9     H     0.44950  0.44950  0.00000  0.10100
      10     H     0.45819  0.45819  0.00000  0.08361
      11     C     3.14650  3.14650  0.00000 -0.29299
      12     H     0.45590  0.45590  0.00000  0.08820
      13     H     0.45328  0.45328  0.00000  0.09344
      14     H     0.45461  0.45461  0.00000  0.09079
      15     H     0.45020  0.45020  0.00000  0.09960
      16     H     0.45419  0.45419  0.00000  0.09162

   Total alpha = 21.00000, Total beta = 21.00000, Total charge = -0.00000

*** Psi4 exiting successfully. Buy a developer a beer!
