                              Psi4 1.0.54 Driver

  ==> Input File <==

--------------------------------------------------------------------------
set {
	reference rhf
	basis cc-pvtz
}

set_num_threads( 4 )
memory 2 gb

molecule MOL {
0 1

H	 -1.260095	 -0.663420	 -1.118868
O	 -1.432053	 -0.565244	 -0.200812
C	 -0.727158	 0.534527	 0.310686
C	 0.680222	 0.664433	 -0.252229
H	 -1.306802	 1.408001	 0.044211
H	 -0.690821	 0.490158	 1.397609
C	 1.605391	 -0.489360	 0.123098
H	 0.615089	 0.745647	 -1.332226
H	 1.101414	 1.597893	 0.110950
H	 1.247627	 -1.432485	 -0.275204
H	 2.601435	 -0.332816	 -0.273062
H	 1.691776	 -0.589902	 1.200774

	symmetry c1
}
set optking {
	frozen_dihedral = ("
		1 2 3 4
	")
}

ee,wfn = optimize('scf', return_wfn=True)
oeprop( wfn, 'DIPOLE', 'QUADRUPOLE', 'MULLIKEN_CHARGES')
f=open( 'psi4out.xyz', 'w' )
f.write( "12  " )
f.write( str(ee) + "\n" )
f.write( MOL.save_string_xyz() )
f.close()
--------------------------------------------------------------------------

    Molecular point group: c1
  Charge       = 0
  Multiplicity = 1
  Basis Set: CC-PVTZ
  Basis Set:
  @DF-RHF Final Energy:  -193.18871325840570
    Total Energy =                       -193.1887132584056417
    Molecular point group: c1
  Basis Set: CC-PVTZ
  Basis Set:
  Basis Set: CC-PVTZ
  Basis Set:
  @DF-RHF Final Energy:  -193.18976212291003
    Total Energy =                       -193.1897621229100537
  Basis Set: CC-PVTZ
  Basis Set:
  Basis Set: CC-PVTZ
  Basis Set:
  @DF-RHF Final Energy:  -193.19016986714624
    Total Energy =                       -193.1901698671464658
  Basis Set: CC-PVTZ
  Basis Set:
  Basis Set: CC-PVTZ
  Basis Set:
  @DF-RHF Final Energy:  -193.19017733191913
    Total Energy =                       -193.1901773319191875
  Basis Set: CC-PVTZ
  Basis Set:
  Charge       = 0
  Multiplicity = 1
  Basis Set: CC-PVTZ
  Basis Set:

    Orbital Energies (a.u.)
    -----------------------

    Doubly Occupied:

       1A    -20.545760     2A    -11.265845     3A    -11.222304
       4A    -11.210585     5A     -1.363998     6A     -1.052501
       7A     -0.925017     8A     -0.819219     9A     -0.669858
      10A     -0.640917    11A     -0.638279    12A     -0.570331
      13A     -0.541028    14A     -0.516204    15A     -0.488834
      16A     -0.468164    17A     -0.433892

  @DF-RHF Final Energy:  -193.19017806309262

   => Energetics <=

    Nuclear Repulsion Energy =            133.2586410808905271
    One-Electron Energy =                -526.1521645123124244
    Two-Electron Energy =                 199.7033453683291100
    DFT Exchange-Correlation Energy =       0.0000000000000000
    Empirical Dispersion Energy =           0.0000000000000000
    PCM Polarization Energy =               0.0000000000000000
    EFP Energy =                            0.0000000000000000
    Total Energy =                       -193.1901780630927874
    Molecular point group: c1
  Basis Set: CC-PVTZ
  Basis Set:

  -Total Gradient:
     Atom            X                  Y                   Z
    ------   -----------------  -----------------  -----------------
       1        0.001531110810    -0.001203862893     0.000506156114
       2       -0.002123010529     0.001675136951    -0.001101779770
       3        0.000973926263    -0.001203339535     0.001547905659
       4       -0.000452920312     0.000688907403    -0.000998246802
       5        0.000024869954     0.000023590547     0.000005611471
       6        0.000020299387     0.000004406997     0.000015155907
       7       -0.000015130410     0.000040543889     0.000002434288
       8        0.000013092605     0.000000603097    -0.000004918151
       9        0.000014175356     0.000006693274     0.000013824349
      10       -0.000001674962    -0.000026406017     0.000004565656
      11        0.000006507062     0.000004629890    -0.000023802589
      12        0.000008754776    -0.000010903603     0.000033093868

  **** Optimization is complete! (in 5 steps) ****
    Final optimized geometry and variables:
    Molecular point group: c1

    Geometry (in Angstrom), charge = 0, multiplicity = 1:

    H           -1.235444717235    -0.704361560006    -1.087904976291
    O           -1.429031680480    -0.565104094766    -0.178758198203
    C           -0.722565508272     0.549771391445     0.298310543883
    C            0.698513623793     0.641819436759    -0.235425820272
    H           -1.259553902162     1.461922822365     0.050105944727
    H           -0.712978161761     0.462952449359     1.377766279216
    C            1.589704658312    -0.525888763348     0.176333275127
    H            0.662962837666     0.715709124138    -1.320972102914
    H            1.129878556567     1.574560619502     0.115467325842
    H            1.181668153831    -1.471555541528    -0.157960534821
    H            2.583541124731    -0.422388845182    -0.243306651380
    H            1.687736544150    -0.574627439399     1.255499313699

  Mulliken Charges: (a.u.)
   Center  Symbol    Alpha    Beta     Spin     Total
       1     H     0.39399  0.39399  0.00000  0.21203
       2     O     4.20519  4.20519  0.00000 -0.41037
       3     C     2.96325  2.96325  0.00000  0.07349
       4     C     3.09967  3.09967  0.00000 -0.19935
       5     H     0.46500  0.46500  0.00000  0.07000
       6     H     0.46338  0.46338  0.00000  0.07324
       7     C     3.14346  3.14346  0.00000 -0.28692
       8     H     0.45877  0.45877  0.00000  0.08245
       9     H     0.45191  0.45191  0.00000  0.09617
      10     H     0.45148  0.45148  0.00000  0.09703
      11     H     0.44955  0.44955  0.00000  0.10090
      12     H     0.45434  0.45434  0.00000  0.09132

   Total alpha = 17.00000, Total beta = 17.00000, Total charge =  0.00000

*** Psi4 exiting successfully. Buy a developer a beer!
