                              Psi4 1.0.54 Driver

  ==> Input File <==

--------------------------------------------------------------------------
set {
	reference rhf
	basis cc-pvtz
}

set_num_threads( 4 )
memory 2 gb

molecule MOL {
0 1

O	 -2.071633	 -1.227563	 -0.223463
C	 -1.652164	 -0.152425	 0.058082
C	 -0.327811	 0.006324	 0.778296
C	 -2.402515	 1.108629	 -0.298924
C	 0.424293	 -1.328018	 0.851065
H	 0.285868	 0.747454	 0.277047
H	 -0.539613	 0.359595	 1.779383
C	 1.756687	 -1.213932	 1.585871
H	 0.601135	 -1.705853	 -0.152759
H	 -0.206989	 -2.055581	 1.349562
C	 2.502416	 -2.541216	 1.671708
H	 2.382306	 -0.479643	 1.085927
H	 1.579644	 -0.833543	 2.587619
H	 2.725098	 -2.930375	 0.683780
H	 1.913929	 -3.286952	 2.195091
H	 3.440970	 -2.428550	 2.201635
H	 -3.240910	 0.874416	 -0.936711
H	 -1.747554	 1.818823	 -0.790984
H	 -2.760419	 1.579708	 0.610998

	symmetry c1
}
set optking {
	frozen_dihedral = ("
		5 3 2 4
	")
}

ee,wfn = optimize('scf', return_wfn=True)
oeprop( wfn, 'DIPOLE', 'QUADRUPOLE', 'MULLIKEN_CHARGES')
f=open( 'psi4out.xyz', 'w' )
f.write( "19  " )
f.write( str(ee) + "\n" )
f.write( MOL.save_string_xyz() )
f.close()
--------------------------------------------------------------------------

    Molecular point group: c1
  Charge       = 0
  Multiplicity = 1
  Basis Set: CC-PVTZ
  Basis Set:
  @DF-RHF Final Energy:  -309.17769723296561
    Total Energy =                       -309.1776972329658406
    Molecular point group: c1
  Basis Set: CC-PVTZ
  Basis Set:
  Basis Set: CC-PVTZ
  Basis Set:
  @DF-RHF Final Energy:  -309.06753731478119
    Total Energy =                       -309.0675373147814184
  Basis Set: CC-PVTZ
  Basis Set:
  Basis Set: CC-PVTZ
  Basis Set:
  @DF-RHF Final Energy:  -309.16147319192885
    Total Energy =                       -309.1614731919289625
  Basis Set: CC-PVTZ
  Basis Set:
  Basis Set: CC-PVTZ
  Basis Set:
  @DF-RHF Final Energy:  -309.17802037752813
    Total Energy =                       -309.1780203775281279
  Basis Set: CC-PVTZ
  Basis Set:
  @DF-RHF Final Energy:  -309.17437074146955
    Total Energy =                       -309.1743707414695450
  @DF-RHF Final Energy:  -309.17839393228900
    Total Energy =                       -309.1783939322885999
  @DF-RHF Final Energy:  -309.17884335863022
    Total Energy =                       -309.1788433586301608
  @DF-RHF Final Energy:  -309.17891202856674
    Total Energy =                       -309.1789120285670265
  @DF-RHF Final Energy:  -309.17893163438657
    Total Energy =                       -309.1789316343864584
  @DF-RHF Final Energy:  -309.17898507207332
    Total Energy =                       -309.1789850720733739
  @DF-RHF Final Energy:  -309.17900332643910
    Total Energy =                       -309.1790033264385329
  Basis Set: CC-PVTZ
  Basis Set:
  @DF-RHF Final Energy:  -309.17901177932794
    Total Energy =                       -309.1790117793277659
  Basis Set: CC-PVTZ
  Basis Set:
  Basis Set: CC-PVTZ
  Basis Set:
  @DF-RHF Final Energy:  -309.17901330920614
    Total Energy =                       -309.1790133092061978
  Basis Set: CC-PVTZ
  Basis Set:
  Basis Set: CC-PVTZ
  Basis Set:
  @DF-RHF Final Energy:  -309.17901618499945
    Total Energy =                       -309.1790161849993979
  Basis Set: CC-PVTZ
  Basis Set:
  Charge       = 0
  Multiplicity = 1
  Basis Set: CC-PVTZ
  Basis Set:

    Orbital Energies (a.u.)
    -----------------------

    Doubly Occupied:

       1A    -20.538803     2A    -11.320839     3A    -11.230577
       4A    -11.226956     5A    -11.217885     6A    -11.215576
       7A    -11.208337     8A     -1.399013     9A     -1.087403
      10A     -1.030917    11A     -0.984568    12A     -0.887232
      13A     -0.802054    14A     -0.732015    15A     -0.658025
      16A     -0.653087    17A     -0.628491    18A     -0.612718
      19A     -0.582425    20A     -0.570508    21A     -0.555802
      22A     -0.530682    23A     -0.512417    24A     -0.490250
      25A     -0.477707    26A     -0.474419    27A     -0.469342
      28A     -0.402375

  @DF-RHF Final Energy:  -309.17901715562670

   => Energetics <=

    Nuclear Repulsion Energy =            301.3573571013535570
    One-Electron Energy =               -1016.0719082382613578
    Two-Electron Energy =                 405.5355339812811053
    DFT Exchange-Correlation Energy =       0.0000000000000000
    Empirical Dispersion Energy =           0.0000000000000000
    PCM Polarization Energy =               0.0000000000000000
    EFP Energy =                            0.0000000000000000
    Total Energy =                       -309.1790171556267524
    Molecular point group: c1
  Basis Set: CC-PVTZ
  Basis Set:

  -Total Gradient:
     Atom            X                  Y                   Z
    ------   -----------------  -----------------  -----------------
       1       -0.000036655455    -0.000044639852    -0.000003353339
       2       -0.000018459342     0.000122550923     0.000331817663
       3       -0.000036157672    -0.000027551411     0.000318382381
       4        0.000049639486    -0.000109179379    -0.000291726482
       5        0.000046214823     0.000003479145    -0.000317010786
       6        0.000001588024     0.000003774234    -0.000007370354
       7        0.000004591554    -0.000006970038    -0.000009325060
       8       -0.000005064379     0.000000780567     0.000003934397
       9       -0.000003253369     0.000006742411     0.000001360157
      10       -0.000001504349    -0.000002688863     0.000002332255
      11        0.000009417798    -0.000001535273    -0.000000584552
      12        0.000002950211    -0.000000907095    -0.000000736169
      13        0.000002829746    -0.000002203531     0.000001454220
      14       -0.000001841427     0.000001095658    -0.000000766807
      15       -0.000001701488     0.000001508039     0.000000938469
      16        0.000003688974    -0.000001507652    -0.000000261550
      17       -0.000077941191    -0.000014238226     0.000001088471
      18        0.000030306705     0.000019820698    -0.000083910907
      19        0.000031351349     0.000051669643     0.000053737992

  **** Optimization is complete! (in 15 steps) ****
    Final optimized geometry and variables:
    Molecular point group: c1

    Geometry (in Angstrom), charge = 0, multiplicity = 1:

    O           -2.105024332729    -0.343248465423    -0.103247769423
    C           -1.497869151763     0.675205551116    -0.167151898278
    C            0.003459687081     0.737327497413     0.027774036640
    C           -2.189430861637     1.988363698867    -0.454769395403
    C            0.689562854300    -0.620578403289     0.075865511103
    H            0.421843886918     1.355285558826    -0.762701030749
    H            0.179420606736     1.288693603721     0.949504717701
    C            2.196497254317    -0.510779158946     0.290296301069
    H            0.489019346383    -1.153789847888    -0.847454721709
    H            0.247263476420    -1.215185332328     0.866327365697
    C            2.888901160291    -1.868636537037     0.335974705112
    H            2.633836254891     0.088729719519    -0.503987939492
    H            2.391942338861     0.023324650258     1.216596146646
    H            2.741453886637    -2.413557565475    -0.590299351870
    H            2.497741062953    -2.479272293032     1.142582394971
    H            3.956279118396    -1.759994342188     0.490033401223
    H           -3.259868642323     1.858073390139    -0.409451861234
    H           -1.911479553767     2.329528959851    -1.446756862828
    H           -1.877806863468     2.752286584094     0.248415146056

  Mulliken Charges: (a.u.)
   Center  Symbol    Alpha    Beta     Spin     Total
       1     O     4.17124  4.17124  0.00000 -0.34248
       2     C     2.86209  2.86209  0.00000  0.27582
       3     C     3.11251  3.11251  0.00000 -0.22501
       4     C     3.15152  3.15152  0.00000 -0.30303
       5     C     3.08085  3.08085  0.00000 -0.16171
       6     H     0.44606  0.44606  0.00000  0.10787
       7     H     0.44465  0.44465  0.00000  0.11070
       8     C     3.08502  3.08502  0.00000 -0.17003
       9     H     0.44883  0.44883  0.00000  0.10234
      10     H     0.44413  0.44413  0.00000  0.11173
      11     C     3.14958  3.14958  0.00000 -0.29916
      12     H     0.45612  0.45612  0.00000  0.08777
      13     H     0.45558  0.45558  0.00000  0.08884
      14     H     0.45407  0.45407  0.00000  0.09186
      15     H     0.45356  0.45356  0.00000  0.09288
      16     H     0.44870  0.44870  0.00000  0.10261
      17     H     0.43558  0.43558  0.00000  0.12884
      18     H     0.44888  0.44888  0.00000  0.10223
      19     H     0.45104  0.45104  0.00000  0.09793

   Total alpha = 28.00000, Total beta = 28.00000, Total charge = -0.00000

*** Psi4 exiting successfully. Buy a developer a beer!
