  ==> Input File <==

--------------------------------------------------------------------------
set {
	reference rhf
	basis 6-31G*
}

set_num_threads( 4 )
memory 2 gb

molecule MOL {
0 1

H	 -3.197786	 1.823716	 0.210183
C	 -3.237963	 0.950677	 -0.452998
C	 -2.231800	 0.956301	 -1.575591
O	 -4.034379	 0.090296	 -0.260084
C	 -0.797957	 1.189655	 -1.079712
H	 -2.318925	 0.021862	 -2.117756
H	 -2.512276	 1.762439	 -2.252444
C	 -0.252658	 0.041456	 -0.226725
H	 -0.154974	 1.334841	 -1.942717
H	 -0.758339	 2.118780	 -0.513217
C	 1.180775	 0.282413	 0.250794
H	 -0.293363	 -0.880507	 -0.803071
H	 -0.896577	 -0.114995	 0.636658
C	 2.148627	 -0.814315	 -0.201312
H	 1.516199	 1.249228	 -0.115937
H	 1.192670	 0.346017	 1.338083
C	 3.580890	 -0.659131	 0.322722
H	 2.166869	 -0.852443	 -1.289387
H	 1.762857	 -1.776509	 0.128956
C	 4.324889	 0.564933	 -0.213704
H	 4.142010	 -1.551473	 0.056605
H	 3.564836	 -0.624694	 1.410140
H	 4.342616	 0.565491	 -1.300421
H	 3.866655	 1.493402	 0.110242
H	 5.353900	 0.572371	 0.132816

	symmetry c1
}
set optking {
	frozen_dihedral = ("
		12 8 11 14
	")
}

ee = optimize('scf')
oeprop('DIPOLE', 'QUADRUPOLE', 'MULLIKEN_CHARGES')
f=open( 'psi4out.xyz', 'w' )
f.write( "25  " )
f.write( str(ee) + "\n" )
f.write( MOL.save_string_xyz() )
f.close()
--------------------------------------------------------------------------

    Molecular point group: c1
  Charge       = 0
  Multiplicity = 1
  Basis Set: 6-31G*
  Basis Set:
  @DF-RHF Final Energy:  -387.11640111619766
    Total Energy =                       -387.1164011161974940
    Molecular point group: c1
  Basis Set: 6-31G*
  Basis Set:
  Basis Set: 6-31G*
  Basis Set:
  @DF-RHF Final Energy:  -387.11638309936700
    Total Energy =                       -387.1163830993667716
  Basis Set: 6-31G*
  Basis Set:
  Basis Set: 6-31G*
  Basis Set:
  @DF-RHF Final Energy:  -387.11291867183263
    Total Energy =                       -387.1129186718329720
  Basis Set: 6-31G*
  Basis Set:
  Basis Set: 6-31G*
  Basis Set:
  @DF-RHF Final Energy:  -387.11665650183636
    Total Energy =                       -387.1166565018361325
  Basis Set: 6-31G*
  Basis Set:
  Basis Set: 6-31G*
  Basis Set:
  @DF-RHF Final Energy:  -387.11668906154205
    Total Energy =                       -387.1166890615418197
  Basis Set: 6-31G*
  Basis Set:
  Basis Set: 6-31G*
  Basis Set:
  @DF-RHF Final Energy:  -387.11669547511730
    Total Energy =                       -387.1166954751174671
  Basis Set: 6-31G*
  Basis Set:
  Basis Set: 6-31G*
  Basis Set:
  @DF-RHF Final Energy:  -387.11669683534228
    Total Energy =                       -387.1166968353418270
  Basis Set: 6-31G*
  Basis Set:
  Charge       = 0
  Multiplicity = 1
  Basis Set: 6-31G*
  Basis Set:

    Orbital Energies (a.u.)
    -----------------------

    Doubly Occupied:

       1A    -20.562003     2A    -11.326201     3A    -11.235641
       4A    -11.234530     5A    -11.223651     6A    -11.219588
       7A    -11.218403     8A    -11.217810     9A    -11.211365
      10A     -1.401945    11A     -1.102601    12A     -1.069724
      13A     -1.011723    14A     -0.942508    15A     -0.876167
      16A     -0.822280    17A     -0.788045    18A     -0.782135
      19A     -0.665576    20A     -0.651977    21A     -0.635114
      22A     -0.623597    23A     -0.607502    24A     -0.597227
      25A     -0.564685    26A     -0.562599    27A     -0.525713
      28A     -0.523878    29A     -0.518667    30A     -0.499669
      31A     -0.486981    32A     -0.478253    33A     -0.459981
      34A     -0.457703    35A     -0.441867    36A     -0.409521

  @DF-RHF Final Energy:  -387.11669715805039

   => Energetics <=

    Nuclear Repulsion Energy =            439.6850704175178066
    One-Electron Energy =               -1395.6898720959168259
    Two-Electron Energy =                 568.8881045203485201
    DFT Exchange-Correlation Energy =       0.0000000000000000
    Empirical Dispersion Energy =           0.0000000000000000
    PCM Polarization Energy =               0.0000000000000000
    EFP Energy =                            0.0000000000000000
    Total Energy =                       -387.1166971580504423
    Molecular point group: c1
  Basis Set: 6-31G*
  Basis Set:

  -Total Gradient:
     Atom            X                  Y                   Z
    ------   -----------------  -----------------  -----------------
       1       -0.000015442058    -0.000003589090     0.000004370669
       2        0.000022349683    -0.000037258821    -0.000007142748
       3        0.000010444553     0.000015709880     0.000002689282
       4       -0.000018314004     0.000014003790     0.000020989357
       5       -0.000004611752    -0.000022279119    -0.000025483526
       6       -0.000001005760     0.000004671234     0.000008401110
       7        0.000005887616     0.000007736821    -0.000017030640
       8        0.000160087360     0.000480289842    -0.000771953480
       9        0.000005007388     0.000006209416     0.000003591631
      10       -0.000002144633    -0.000005077598     0.000006458208
      11       -0.000138789459    -0.000382816838     0.000640255915
      12       -0.000140446148    -0.000305753756     0.000501807693
      13       -0.000013144206    -0.000001949344    -0.000011139861
      14        0.000100109074     0.000238711197    -0.000363230226
      15        0.000013897311    -0.000010246179     0.000009555453
      16        0.000015188571     0.000004929934    -0.000002055748
      17        0.000002398918    -0.000005741570    -0.000002040825
      18        0.000000528422    -0.000003654527     0.000000874307
      19       -0.000000114644     0.000004121220     0.000005487416
      20       -0.000001873048     0.000008455947     0.000001526874
      21        0.000001598767    -0.000002313873    -0.000000936372
      22       -0.000004351435    -0.000002668754    -0.000003856019
      23       -0.000000057231    -0.000001348885    -0.000000070008
      24        0.000003680910    -0.000000220535    -0.000000202376
      25       -0.000000884180     0.000000079608    -0.000000866086

  **** Optimization is complete! (in 8 steps) ****
    Final optimized geometry and variables:
    Molecular point group: c1

    Geometry (in Angstrom), charge = 0, multiplicity = 1:

    H           -3.298836020006     1.530691307725     0.580900157749
    C           -3.326856643924     0.657570645963    -0.082937332972
    C           -2.312610063310     0.672361478338    -1.198329750603
    O           -4.121517977050    -0.206506302548     0.100800652399
    C           -0.883719084782     0.908938654817    -0.690935226787
    H           -2.392022634291    -0.260315951843    -1.744907256146
    H           -2.591315186734     1.480163234067    -1.873870172273
    C           -0.337517102329    -0.242851240125     0.157784871674
    H           -0.233474421518     1.063555103642    -1.547394709752
    H           -0.851945442431     1.833433357849    -0.116736982669
    C            1.111237311026    -0.011107878666     0.643868473493
    H           -0.389706255884    -1.159694728503    -0.424072242200
    H           -0.990672905151    -0.404613323803     1.011430882842
    C            2.080337554435    -1.108044583445     0.191301568812
    H            1.461307003078     0.951793206471     0.282893389177
    H            1.131994818218     0.052494079466     1.728771561152
    C            3.515318704767    -0.948105309746     0.704866687405
    H            2.090229030683    -1.150049560909    -0.897151075050
    H            1.697350880790    -2.069195074285     0.527594529455
    C            4.255925874242     0.273147375840     0.156417632211
    H            4.075504935873    -1.841920034890     0.441745174855
    H            3.505100460234    -0.906621916821     1.792182740401
    H            4.269654270935     0.265568818554    -0.930275379366
    H            3.798909159024     1.204059398888     0.475300182684
    H            5.286204511988     0.283959388658     0.498375842398

  Mulliken Charges: (a.u.)
   Center  Symbol    Alpha    Beta     Spin     Total
       1     H     0.43258  0.43258  0.00000  0.13485
       2     C     2.83088  2.83088  0.00000  0.33824
       3     C     3.20890  3.20890  0.00000 -0.41780
       4     O     4.23777  4.23777  0.00000 -0.47553
       5     C     3.16871  3.16871  0.00000 -0.33741
       6     H     0.39965  0.39965  0.00000  0.20070
       7     H     0.40661  0.40661  0.00000  0.18678
       8     C     3.15783  3.15783  0.00000 -0.31566
       9     H     0.41275  0.41275  0.00000  0.17450
      10     H     0.41908  0.41908  0.00000  0.16185
      11     C     3.15825  3.15825  0.00000 -0.31651
      12     H     0.41528  0.41528  0.00000  0.16943
      13     H     0.41574  0.41574  0.00000  0.16852
      14     C     3.15463  3.15463  0.00000 -0.30925
      15     H     0.41890  0.41890  0.00000  0.16219
      16     H     0.41915  0.41915  0.00000  0.16170
      17     C     3.15350  3.15350  0.00000 -0.30701
      18     H     0.42447  0.42447  0.00000  0.15105
      19     H     0.41988  0.41988  0.00000  0.16025
      20     C     3.24141  3.24141  0.00000 -0.48282
      21     H     0.42004  0.42004  0.00000  0.15992
      22     H     0.42268  0.42268  0.00000  0.15465
      23     H     0.42236  0.42236  0.00000  0.15527
      24     H     0.42056  0.42056  0.00000  0.15888
      25     H     0.41841  0.41841  0.00000  0.16319

   Total alpha = 36.00000, Total beta = 36.00000, Total charge =  0.00000
