  ==> Input File <==

--------------------------------------------------------------------------
set {
	reference rhf
	basis 6-31G*
}

set_num_threads( 1 )
memory 2 gb

molecule MOL {
0 1

O	 -0.359939	 -2.040609	 1.064873
C	 -1.363949	 -1.645580	 0.564342
C	 -2.641161	 -2.443107	 0.501514
O	 -1.481751	 -0.454642	 0.000584
H	 -2.943969	 -2.695144	 1.510795
H	 -3.431782	 -1.899379	 0.005816
H	 -2.446651	 -3.370669	 -0.023532
C	 -0.334255	 0.388708	 0.000906
C	 0.891947	 -0.504646	 0.000751
H	 -0.365390	 1.025305	 -0.873475
H	 -0.365484	 1.024911	 0.875569
C	 2.191998	 0.301789	 0.000897
H	 0.855148	 -1.151283	 -0.871571
H	 0.855132	 -1.151660	 0.872805
C	 3.441114	 -0.581407	 0.000108
H	 2.215074	 0.954890	 -0.869742
H	 2.215465	 0.953923	 0.872248
C	 4.739576	 0.224112	 -0.001102
H	 3.419457	 -1.233487	 -0.870178
H	 3.420834	 -1.233096	 0.870717
H	 4.804918	 0.861552	 -0.878265
H	 5.606527	 -0.429058	 -0.001824
H	 4.806469	 0.861674	 0.875853

	symmetry c1
}
set optking {
	frozen_dihedral = ("
		13 9 8 10,
		16 12 9 13,
		19 15 12 16,
		1 2 4 8
	")
}

ee = energy('scf')
oeprop('DIPOLE', 'QUADRUPOLE', 'MULLIKEN_CHARGES')
f=open( 'psi4out.xyz', 'w' )
f.write( "23  " )
f.write( str(ee) + "\n" )
f.write( MOL.save_string_xyz() )
f.close()
--------------------------------------------------------------------------

    Molecular point group: c1

    Geometry (in Angstrom), charge = 0, multiplicity = 1:

       Center              X                  Y                   Z               Mass
    ------------   -----------------  -----------------  -----------------  -----------------
           O         -0.916722725211    -1.282934650764     0.823843396829    15.994914619560
           C         -1.920732725211    -0.887905650764     0.323312396829    12.000000000000
           C         -3.197944725211    -1.685432650764     0.260484396829    12.000000000000
           O         -2.038534725211     0.303032349236    -0.240445603171    15.994914619560
           H         -3.500752725211    -1.937469650764     1.269765396829     1.007825032070
           H         -3.988565725211    -1.141704650764    -0.235213603171     1.007825032070
           H         -3.003434725211    -2.612994650764    -0.264561603171     1.007825032070
           C         -0.891038725211     1.146382349236    -0.240123603171    12.000000000000
           C          0.335163274789     0.253028349236    -0.240278603171    12.000000000000
           H         -0.922173725211     1.782979349236    -1.114504603171     1.007825032070
           H         -0.922267725211     1.782585349236     0.634539396829     1.007825032070
           C          1.635214274789     1.059463349236    -0.240132603171    12.000000000000
           H          0.298364274789    -0.393608650764    -1.112600603171     1.007825032070
           H          0.298348274789    -0.393985650764     0.631775396829     1.007825032070
           C          2.884330274789     0.176267349236    -0.240921603171    12.000000000000
           H          1.658290274789     1.712564349236    -1.110771603171     1.007825032070
           H          1.658681274789     1.711597349236     0.631218396829     1.007825032070
           C          4.182792274789     0.981786349236    -0.242131603171    12.000000000000
           H          2.862673274789    -0.475812650764    -1.111207603171     1.007825032070
           H          2.864050274789    -0.475421650764     0.629687396829     1.007825032070
           H          4.248134274789     1.619226349236    -1.119294603171     1.007825032070
           H          5.049743274789     0.328616349236    -0.242853603171     1.007825032070
           H          4.249685274789     1.619348349236     0.634823396829     1.007825032070

  Charge       = 0
  Multiplicity = 1
  Basis Set: 6-31G*
  Basis Set:

    Orbital Energies (a.u.)
    -----------------------

    Doubly Occupied:

       1A    -20.607973     2A    -20.540128     3A    -11.385763
       4A    -11.281285     5A    -11.237156     6A    -11.207343
       7A    -11.203222     8A    -11.202385     9A    -11.182232
      10A     -1.480341    11A     -1.373801    12A     -1.080716
      13A     -1.040292    14A     -0.994370    15A     -0.926317
      16A     -0.850761    17A     -0.792212    18A     -0.770053
      19A     -0.709101    20A     -0.692051    21A     -0.662793
      22A     -0.632325    23A     -0.604266    24A     -0.589064
      25A     -0.576005    26A     -0.563163    27A     -0.556074
      28A     -0.531551    29A     -0.527013    30A     -0.522586
      31A     -0.496015    32A     -0.469314    33A     -0.459899
      34A     -0.449907    35A     -0.436279    36A     -0.376544

  @DF-RHF Final Energy:  -422.91658623065558

   => Energetics <=

    Nuclear Repulsion Energy =            471.6749740190609259
    One-Electron Energy =               -1511.1622900662082429
    Two-Electron Energy =                 616.5707298164901431
    DFT Exchange-Correlation Energy =       0.0000000000000000
    Empirical Dispersion Energy =           0.0000000000000000
    PCM Polarization Energy =               0.0000000000000000
    EFP Energy =                            0.0000000000000000
    Total Energy =                       -422.9165862306571171

  Mulliken Charges: (a.u.)
   Center  Symbol    Alpha    Beta     Spin     Total
       1     O     4.29290  4.29290  0.00000 -0.58580
       2     C     2.60259  2.60259  0.00000  0.79482
       3     C     3.28727  3.28727  0.00000 -0.57455
       4     O     4.31468  4.31468  0.00000 -0.62936
       5     H     0.39666  0.39666  0.00000  0.20667
       6     H     0.39791  0.39791  0.00000  0.20418
       7     H     0.39688  0.39688  0.00000  0.20624
       8     C     2.99366  2.99366  0.00000  0.01268
       9     C     3.20613  3.20613  0.00000 -0.41226
      10     H     0.40934  0.40934  0.00000  0.18133
      11     H     0.41517  0.41517  0.00000  0.16965
      12     C     3.15177  3.15177  0.00000 -0.30353
      13     H     0.42484  0.42484  0.00000  0.15033
      14     H     0.34901  0.34901  0.00000  0.30199
      15     C     3.14904  3.14904  0.00000 -0.29808
      16     H     0.43344  0.43344  0.00000  0.13313
      17     H     0.42844  0.42844  0.00000  0.14313
      18     C     3.23881  3.23881  0.00000 -0.47762
      19     H     0.42393  0.42393  0.00000  0.15215
      20     H     0.42104  0.42104  0.00000  0.15792
      21     H     0.42304  0.42304  0.00000  0.15392
      22     H     0.42053  0.42053  0.00000  0.15894
      23     H     0.42295  0.42295  0.00000  0.15410

   Total alpha = 36.00000, Total beta = 36.00000, Total charge =  0.00000
