  ==> Input File <==

--------------------------------------------------------------------------
set {
	reference rhf
	basis 6-31G*
}

set_num_threads( 1 )
memory 2 gb

molecule MOL {
0 1

H	 3.276176	 0.174363	 -0.109463
N	 2.434251	 -0.367735	 -0.081097
C	 1.267428	 0.496480	 0.024474
H	 2.501951	 -0.965776	 0.720575
C	 -0.016086	 -0.325158	 -0.029487
H	 1.288818	 1.183521	 -0.816092
H	 1.267576	 1.109062	 0.929528
C	 -1.282277	 0.529072	 0.046735
H	 -0.012495	 -0.908639	 -0.945788
H	 -0.015903	 -1.041248	 0.791956
C	 -1.223199	 1.582121	 1.152764
H	 -2.142928	 -0.116189	 0.210762
H	 -1.447816	 1.020994	 -0.909595
H	 -1.093358	 1.119539	 2.126868
H	 -2.134527	 2.171179	 1.184610
H	 -0.392718	 2.265440	 0.999146

	symmetry c1
}
set optking {
	frozen_dihedral = ("
		6 3 5 9,
		1 2 3 6
	")
}

ee = energy('scf')
oeprop('DIPOLE', 'QUADRUPOLE', 'MULLIKEN_CHARGES')
f=open( 'psi4out.xyz', 'w' )
f.write( "16  " )
f.write( str(ee) + "\n" )
f.write( MOL.save_string_xyz() )
f.close()
--------------------------------------------------------------------------

    Molecular point group: c1

    Geometry (in Angstrom), charge = 0, multiplicity = 1:

       Center              X                  Y                   Z               Mass
    ------------   -----------------  -----------------  -----------------  -----------------
           H          3.000612092997    -0.212836082865    -0.347712591244     1.007825032070
           N          2.158687092997    -0.754934082865    -0.319346591244    14.003074004780
           C          0.991864092997     0.109280917135    -0.213775591244    12.000000000000
           H          2.226387092997    -1.352975082865     0.482325408756     1.007825032070
           C         -0.291649907003    -0.712357082865    -0.267736591244    12.000000000000
           H          1.013254092997     0.796321917135    -1.054341591244     1.007825032070
           H          0.992012092997     0.721862917135     0.691278408756     1.007825032070
           C         -1.557840907003     0.141872917135    -0.191514591244    12.000000000000
           H         -0.288058907003    -1.295838082865    -1.184037591244     1.007825032070
           H         -0.291466907003    -1.428447082865     0.553706408756     1.007825032070
           C         -1.498762907003     1.194921917135     0.914514408756    12.000000000000
           H         -2.418491907003    -0.503388082865    -0.027487591244     1.007825032070
           H         -1.723379907003     0.633794917135    -1.147844591244     1.007825032070
           H         -1.368921907003     0.732339917135     1.888618408756     1.007825032070
           H         -2.410090907003     1.783979917135     0.946360408756     1.007825032070
           H         -0.668281907003     1.878240917135     0.760896408756     1.007825032070

  Charge       = 0
  Multiplicity = 1
  Basis Set: 6-31G*
  Basis Set:

    Orbital Energies (a.u.)
    -----------------------

    Doubly Occupied:

       1A    -15.531847     2A    -11.238612     3A    -11.215037
       4A    -11.209499     5A    -11.208382     6A     -1.176319
       7A     -1.061673     8A     -0.952290     9A     -0.862725
      10A     -0.776775    11A     -0.656553    12A     -0.639691
      13A     -0.624627    14A     -0.566124    15A     -0.556276
      16A     -0.537193    17A     -0.503874    18A     -0.467817
      19A     -0.465758    20A     -0.458205    21A     -0.378658

  @DF-RHF Final Energy:  -212.31196291665464

   => Energetics <=

    Nuclear Repulsion Energy =            190.2914650127114555
    One-Electron Energy =                -663.0309466869784956
    Two-Electron Energy =                 260.4275187576121198
    DFT Exchange-Correlation Energy =       0.0000000000000000
    Empirical Dispersion Energy =           0.0000000000000000
    PCM Polarization Energy =               0.0000000000000000
    EFP Energy =                            0.0000000000000000
    Total Energy =                       -212.3119629166549203

  Mulliken Charges: (a.u.)
   Center  Symbol    Alpha    Beta     Spin     Total
       1     H     0.33270  0.33270  0.00000  0.33459
       2     N     3.92197  3.92197  0.00000 -0.84393
       3     C     3.06491  3.06491  0.00000 -0.12982
       4     H     0.33550  0.33550  0.00000  0.32899
       5     C     3.15175  3.15175  0.00000 -0.30351
       6     H     0.42154  0.42154  0.00000  0.15692
       7     H     0.43017  0.43017  0.00000  0.13966
       8     C     3.15514  3.15514  0.00000 -0.31027
       9     H     0.41121  0.41121  0.00000  0.17758
      10     H     0.42791  0.42791  0.00000  0.14417
      11     C     3.24566  3.24566  0.00000 -0.49132
      12     H     0.41965  0.41965  0.00000  0.16071
      13     H     0.42171  0.42171  0.00000  0.15658
      14     H     0.42239  0.42239  0.00000  0.15522
      15     H     0.41851  0.41851  0.00000  0.16298
      16     H     0.41927  0.41927  0.00000  0.16145

   Total alpha = 21.00000, Total beta = 21.00000, Total charge =  0.00000
