  ==> Input File <==

--------------------------------------------------------------------------
set {
	reference rhf
	basis 6-31G*
}

set_num_threads( 1 )
memory 2 gb

molecule MOL {
0 1

O	 2.862325	 1.357334	 0.000267
C	 2.843464	 0.164689	 -0.000222
C	 1.546494	 -0.624492	 -0.000609
C	 4.124123	 -0.644674	 -0.000428
C	 0.291004	 0.242674	 0.000989
H	 1.557904	 -1.283758	 -0.867573
H	 1.558622	 -1.285963	 0.864672
C	 -0.994322	 -0.586602	 0.000262
H	 0.309117	 0.896430	 -0.865270
H	 0.309661	 0.894078	 0.869017
C	 -2.259874	 0.272531	 0.000494
H	 -1.004862	 -1.240012	 -0.870939
H	 -1.005220	 -1.241071	 0.870675
C	 -2.954444	 0.327595	 -1.361326
H	 -2.008014	 1.283392	 0.316320
H	 -2.955941	 -0.113109	 0.743306
C	 -4.217618	 1.187832	 -1.353152
H	 -2.260003	 0.714053	 -2.104445
H	 -3.208054	 -0.682176	 -1.677403
H	 -3.991854	 2.213022	 -1.073571
H	 -4.686830	 1.207787	 -2.332000
H	 -4.947103	 0.806249	 -0.644356
H	 4.165367	 -1.288615	 -0.874074
H	 4.976217	 0.020734	 -0.001915
H	 4.166763	 -1.286207	 0.874930

	symmetry c1
}
set optking {
	frozen_dihedral = ("
		9 5 8 12,
		15 11 14 18,
		1 2 3 6,
		9 5 3 6
	")
}

ee = energy('scf')
oeprop('DIPOLE', 'QUADRUPOLE', 'MULLIKEN_CHARGES')
f=open( 'psi4out.xyz', 'w' )
f.write( "25  " )
f.write( str(ee) + "\n" )
f.write( MOL.save_string_xyz() )
f.close()
--------------------------------------------------------------------------

    Molecular point group: c1

    Geometry (in Angstrom), charge = 0, multiplicity = 1:

       Center              X                  Y                   Z               Mass
    ------------   -----------------  -----------------  -----------------  -----------------
           O          2.727812764498     1.159106754593     0.307707056018    15.994914619560
           C          2.708951764498    -0.033538245407     0.307218056018    12.000000000000
           C          1.411981764498    -0.822719245407     0.306831056018    12.000000000000
           C          3.989610764498    -0.842901245407     0.307012056018    12.000000000000
           C          0.156491764498     0.044446754593     0.308429056018    12.000000000000
           H          1.423391764498    -1.481985245407    -0.560132943982     1.007825032070
           H          1.424109764498    -1.484190245407     1.172112056018     1.007825032070
           C         -1.128834235502    -0.784829245407     0.307702056018    12.000000000000
           H          0.174604764498     0.698202754593    -0.557829943982     1.007825032070
           H          0.175148764498     0.695850754593     1.176457056018     1.007825032070
           C         -2.394386235502     0.074303754593     0.307934056018    12.000000000000
           H         -1.139374235502    -1.438239245407    -0.563498943982     1.007825032070
           H         -1.139732235502    -1.439298245407     1.178115056018     1.007825032070
           C         -3.088956235502     0.129367754593    -1.053885943982    12.000000000000
           H         -2.142526235502     1.085164754593     0.623760056018     1.007825032070
           H         -3.090453235502    -0.311336245407     1.050746056018     1.007825032070
           C         -4.352130235502     0.989604754593    -1.045711943982    12.000000000000
           H         -2.394515235502     0.515825754593    -1.797004943982     1.007825032070
           H         -3.342566235502    -0.880403245407    -1.369962943982     1.007825032070
           H         -4.126366235502     2.014794754593    -0.766130943982     1.007825032070
           H         -4.821342235502     1.009559754593    -2.024559943982     1.007825032070
           H         -5.081615235502     0.608021754593    -0.336915943982     1.007825032070
           H          4.030854764498    -1.486842245407    -0.566633943982     1.007825032070
           H          4.841704764498    -0.177493245407     0.305525056018     1.007825032070
           H          4.032250764498    -1.484434245407     1.182370056018     1.007825032070

  Charge       = 0
  Multiplicity = 1
  Basis Set: 6-31G*
  Basis Set:

    Orbital Energies (a.u.)
    -----------------------

    Doubly Occupied:

       1A    -20.550428     2A    -11.326253     3A    -11.231517
       4A    -11.228288     5A    -11.217096     6A    -11.215340
       7A    -11.215098     8A    -11.212050     9A    -11.207403
      10A     -1.395751    11A     -1.093994    12A     -1.055478
      13A     -1.013854    14A     -0.969052    15A     -0.889613
      16A     -0.820214    17A     -0.786531    18A     -0.730435
      19A     -0.652799    20A     -0.652028    21A     -0.635882
      22A     -0.618978    23A     -0.603556    24A     -0.581107
      25A     -0.565781    26A     -0.564536    27A     -0.542326
      28A     -0.526780    29A     -0.506403    30A     -0.490884
      31A     -0.485896    32A     -0.480785    33A     -0.465485
      34A     -0.453739    35A     -0.447361    36A     -0.399468

  @DF-RHF Final Energy:  -387.13168801982857

   => Energetics <=

    Nuclear Repulsion Energy =            441.9881617098725997
    One-Electron Energy =               -1400.5750550330940314
    Two-Electron Energy =                 571.4552053033922903
    DFT Exchange-Correlation Energy =       0.0000000000000000
    Empirical Dispersion Energy =           0.0000000000000000
    PCM Polarization Energy =               0.0000000000000000
    EFP Energy =                            0.0000000000000000
    Total Energy =                       -387.1316880198290846

  Mulliken Charges: (a.u.)
   Center  Symbol    Alpha    Beta     Spin     Total
       1     O     4.26130  4.26130  0.00000 -0.52259
       2     C     2.73572  2.73572  0.00000  0.52856
       3     C     3.21111  3.21111  0.00000 -0.42221
       4     C     3.28668  3.28668  0.00000 -0.57336
       5     C     3.15015  3.15015  0.00000 -0.30031
       6     H     0.40994  0.40994  0.00000  0.18013
       7     H     0.40998  0.40998  0.00000  0.18003
       8     C     3.15671  3.15671  0.00000 -0.31342
       9     H     0.41203  0.41203  0.00000  0.17595
      10     H     0.41156  0.41156  0.00000  0.17688
      11     C     3.15407  3.15407  0.00000 -0.30815
      12     H     0.42267  0.42267  0.00000  0.15466
      13     H     0.42246  0.42246  0.00000  0.15507
      14     C     3.15339  3.15339  0.00000 -0.30677
      15     H     0.41895  0.41895  0.00000  0.16211
      16     H     0.42151  0.42151  0.00000  0.15697
      17     C     3.23987  3.23987  0.00000 -0.47974
      18     H     0.42244  0.42244  0.00000  0.15513
      19     H     0.42323  0.42323  0.00000  0.15355
      20     H     0.42073  0.42073  0.00000  0.15853
      21     H     0.41958  0.41958  0.00000  0.16084
      22     H     0.42198  0.42198  0.00000  0.15604
      23     H     0.40875  0.40875  0.00000  0.18251
      24     H     0.39650  0.39650  0.00000  0.20699
      25     H     0.40870  0.40870  0.00000  0.18261

   Total alpha = 36.00000, Total beta = 36.00000, Total charge =  0.00000
