                              Psi4 1.0.54 Driver

  ==> Input File <==

--------------------------------------------------------------------------
set {
	reference rhf
	basis cc-pvtz
}

set_num_threads( 4 )
memory 2 gb

molecule MOL {
0 1

O	 -2.071633	 -1.227563	 -0.223463
C	 -1.652164	 -0.152425	 0.058082
C	 -0.327811	 0.006324	 0.778296
C	 -2.402515	 1.108629	 -0.298924
C	 0.843231	 -0.001575	 -0.211665
H	 -0.319484	 0.928173	 1.350354
H	 -0.227804	 -0.823091	 1.466705
C	 1.517026	 -1.366601	 -0.316231
H	 1.581173	 0.739250	 0.085510
H	 0.475784	 0.300373	 -1.186435
C	 2.674300	 -1.382481	 -1.309018
H	 1.877569	 -1.666617	 0.663831
H	 0.778627	 -2.106796	 -0.610203
H	 3.446443	 -0.676322	 -1.022367
H	 2.338030	 -1.117134	 -2.305453
H	 3.128793	 -2.364747	 -1.363696
H	 -3.240910	 0.874416	 -0.936711
H	 -1.747554	 1.818823	 -0.790984
H	 -2.760419	 1.579708	 0.610998

	symmetry c1
}
set optking {
	frozen_dihedral = ("
		9 5 3 2
	")
}

ee,wfn = optimize('scf', return_wfn=True)
oeprop( wfn, 'DIPOLE', 'QUADRUPOLE', 'MULLIKEN_CHARGES')
f=open( 'psi4out.xyz', 'w' )
f.write( "19  " )
f.write( str(ee) + "\n" )
f.write( MOL.save_string_xyz() )
f.close()
--------------------------------------------------------------------------

    Molecular point group: c1
  Charge       = 0
  Multiplicity = 1
  Basis Set: CC-PVTZ
  Basis Set:
  @DF-RHF Final Energy:  -309.17335655788594
    Total Energy =                       -309.1733565578857679
    Molecular point group: c1
  Basis Set: CC-PVTZ
  Basis Set:
  Basis Set: CC-PVTZ
  Basis Set:
  @DF-RHF Final Energy:  -309.17356644028700
    Total Energy =                       -309.1735664402867769
  Basis Set: CC-PVTZ
  Basis Set:
  Basis Set: CC-PVTZ
  Basis Set:
  @DF-RHF Final Energy:  -309.17143231846478
    Total Energy =                       -309.1714323184643263
  Basis Set: CC-PVTZ
  Basis Set:
  Basis Set: CC-PVTZ
  Basis Set:
  @DF-RHF Final Energy:  -309.17379653708360
    Total Energy =                       -309.1737965370836605
  Basis Set: CC-PVTZ
  Basis Set:
  @DF-RHF Final Energy:  -309.17383272266233
    Total Energy =                       -309.1738327226622687
  Basis Set: CC-PVTZ
  Basis Set:
  @DF-RHF Final Energy:  -309.17384405826715
    Total Energy =                       -309.1738440582673775
  Basis Set: CC-PVTZ
  Basis Set:
  Basis Set: CC-PVTZ
  Basis Set:
  @DF-RHF Final Energy:  -309.17384724374944
    Total Energy =                       -309.1738472437492646
  Basis Set: CC-PVTZ
  Basis Set:
  Basis Set: CC-PVTZ
  Basis Set:
  @DF-RHF Final Energy:  -309.17384838459361
    Total Energy =                       -309.1738483845936116
  Basis Set: CC-PVTZ
  Basis Set:
  Charge       = 0
  Multiplicity = 1
  Basis Set: CC-PVTZ
  Basis Set:

    Orbital Energies (a.u.)
    -----------------------

    Doubly Occupied:

       1A    -20.537128     2A    -11.319707     3A    -11.230246
       4A    -11.228054     5A    -11.227071     6A    -11.217899
       7A    -11.210188     8A     -1.396936     9A     -1.090703
      10A     -1.029550    11A     -0.982259    12A     -0.890725
      13A     -0.807492    14A     -0.735944    15A     -0.662801
      16A     -0.642540    17A     -0.624412    18A     -0.610270
      19A     -0.585576    20A     -0.575109    21A     -0.552964
      22A     -0.532245    23A     -0.524679    24A     -0.499700
      25A     -0.477329    26A     -0.475614    27A     -0.464520
      28A     -0.399269

  @DF-RHF Final Energy:  -309.17384861440235

   => Energetics <=

    Nuclear Repulsion Energy =            305.7566875462520102
    One-Electron Energy =               -1024.7992193407189916
    Two-Electron Energy =                 409.8686831800649770
    DFT Exchange-Correlation Energy =       0.0000000000000000
    Empirical Dispersion Energy =           0.0000000000000000
    PCM Polarization Energy =               0.0000000000000000
    EFP Energy =                            0.0000000000000000
    Total Energy =                       -309.1738486144020044
    Molecular point group: c1
  Basis Set: CC-PVTZ
  Basis Set:

  -Total Gradient:
     Atom            X                  Y                   Z
    ------   -----------------  -----------------  -----------------
       1        0.000009205918     0.000022541378     0.000004863016
       2       -0.000171706224     0.002315857191    -0.000202692547
       3       -0.000144379045    -0.002660889575    -0.000158000954
       4       -0.000000331409     0.000016183041     0.000008177124
       5        0.001797900930    -0.001958482571     0.002193024479
       6       -0.000001227891     0.000001230519     0.000000328599
       7        0.000003822924     0.000002170700    -0.000009354519
       8        0.000003760166    -0.000014915818    -0.000008980455
       9       -0.001495385655     0.002281368849    -0.001831981573
      10        0.000000849054    -0.000008036427     0.000009033921
      11       -0.000006045720     0.000008201556     0.000006616238
      12       -0.000003777443     0.000007345775    -0.000008243041
      13       -0.000001908064    -0.000003648521     0.000002521896
      14       -0.000000774716    -0.000002287699    -0.000003805981
      15        0.000003249532    -0.000003304127     0.000003125490
      16        0.000002458079    -0.000002322058    -0.000000618675
      17        0.000004878376     0.000000626711     0.000000298092
      18       -0.000001454610    -0.000002047056    -0.000002656029
      19        0.000000865795     0.000000408134    -0.000001655081

  **** Optimization is complete! (in 9 steps) ****
    Final optimized geometry and variables:
    Molecular point group: c1

    Geometry (in Angstrom), charge = 0, multiplicity = 1:

    O           -1.935833149789    -0.785279723226     0.091636934526
    C           -1.453017113414     0.281570004466     0.294355224074
    C           -0.142343026141     0.431885162517     1.038019601176
    C           -2.113393501571     1.550969823696    -0.191727878010
    C            1.056556073210     0.431122261024     0.062115042873
    H           -0.159303348397     1.359556872184     1.598339940464
    H           -0.056327465746    -0.384238749051     1.742192544247
    C            1.713636270050    -0.937798120220    -0.085657202813
    H            1.783912745377     1.168199819634     0.384183914908
    H            0.728075432516     0.768986201423    -0.917611153873
    C            2.851151379710    -0.943255182101    -1.100465436197
    H            2.089979332642    -1.255657615583     0.882376226210
    H            0.960509586392    -1.663082057635    -0.374836889228
    H            3.629493661722    -0.239881066638    -0.822792434693
    H            2.496211315571    -0.669891331744    -2.088527193019
    H            3.303914336930    -1.925073887110    -1.173015989011
    H           -2.917916200551     1.313803188490    -0.870745104017
    H           -1.396554585537     2.204118698365    -0.675291320736
    H           -2.511800370913     2.088079079537     0.663260905539

  Mulliken Charges: (a.u.)
   Center  Symbol    Alpha    Beta     Spin     Total
       1     O     4.17784  4.17784  0.00000 -0.35568
       2     C     2.85726  2.85726  0.00000  0.28549
       3     C     3.10953  3.10953  0.00000 -0.21906
       4     C     3.15476  3.15476  0.00000 -0.30952
       5     C     3.09911  3.09911  0.00000 -0.19822
       6     H     0.44028  0.44028  0.00000  0.11943
       7     H     0.43979  0.43979  0.00000  0.12041
       8     C     3.08159  3.08159  0.00000 -0.16318
       9     H     0.44560  0.44560  0.00000  0.10879
      10     H     0.45509  0.45509  0.00000  0.08982
      11     C     3.15094  3.15094  0.00000 -0.30187
      12     H     0.45391  0.45391  0.00000  0.09217
      13     H     0.44255  0.44255  0.00000  0.11489
      14     H     0.45624  0.45624  0.00000  0.08752
      15     H     0.45437  0.45437  0.00000  0.09125
      16     H     0.44658  0.44658  0.00000  0.10684
      17     H     0.43631  0.43631  0.00000  0.12739
      18     H     0.45048  0.45048  0.00000  0.09904
      19     H     0.44775  0.44775  0.00000  0.10449

   Total alpha = 28.00000, Total beta = 28.00000, Total charge = -0.00000

*** Psi4 exiting successfully. Buy a developer a beer!
