  ==> Input File <==

--------------------------------------------------------------------------
set {
	reference rhf
	basis cc-pvtz
}

set_num_threads( 4 )
memory 2 gb

molecule MOL {
0 1

O	 -1.278239	 1.034789	 -0.784693
C	 -1.204115	 0.062668	 -0.112312
C	 -2.386398	 -0.667698	 0.460323
O	 -0.068058	 -0.518372	 0.226882
H	 -2.382952	 -1.693172	 0.114333
H	 -3.296656	 -0.175702	 0.158400
H	 -2.312537	 -0.685191	 1.540100
C	 1.169086	 0.037484	 -0.230612
C	 2.185827	 -1.084963	 -0.171763
C	 1.548975	 1.228515	 0.630630
H	 1.030502	 0.359044	 -1.251632
H	 1.875715	 -1.915070	 -0.793456
H	 3.147699	 -0.733157	 -0.524958
H	 2.303728	 -1.443565	 0.843835
H	 2.491703	 1.643160	 0.293236
H	 0.797565	 2.003157	 0.567687
H	 1.659079	 0.928505	 1.666562

	symmetry c1
}
set optking {
	frozen_dihedral = ("
		11 8 4 2
	")
}

ee = optimize('scf')
oeprop('DIPOLE', 'QUADRUPOLE', 'MULLIKEN_CHARGES')
f=open( 'psi4out.xyz', 'w' )
f.write( "17  " )
f.write( str(ee) + "\n" )
f.write( MOL.save_string_xyz() )
f.close()
--------------------------------------------------------------------------

    Molecular point group: c1
  Charge       = 0
  Multiplicity = 1
  Basis Set: CC-PVTZ
  Basis Set:
  @DF-RHF Final Energy:  -345.04330288194546
    Total Energy =                       -345.0433028819457490
    Molecular point group: c1
  Basis Set: CC-PVTZ
  Basis Set:
  Basis Set: CC-PVTZ
  Basis Set:
  @DF-RHF Final Energy:  -345.04332131834917
    Total Energy =                       -345.0433213183490579
  Basis Set: CC-PVTZ
  Basis Set:
  Basis Set: CC-PVTZ
  Basis Set:
  @DF-RHF Final Energy:  -345.04321881130176
    Total Energy =                       -345.0432188113020402
  Basis Set: CC-PVTZ
  Basis Set:
  Basis Set: CC-PVTZ
  Basis Set:
  @DF-RHF Final Energy:  -345.04333435929743
    Total Energy =                       -345.0433343592978304
  Basis Set: CC-PVTZ
  Basis Set:
  Charge       = 0
  Multiplicity = 1
  Basis Set: CC-PVTZ
  Basis Set:

    Orbital Energies (a.u.)
    -----------------------

    Doubly Occupied:

       1A    -20.591378     2A    -20.531494     3A    -11.366686
       4A    -11.288537     5A    -11.230546     6A    -11.217616
       7A    -11.213602     8A     -1.468562     9A     -1.364486
      10A     -1.079633    11A     -1.005637    12A     -0.948565
      13A     -0.850321    14A     -0.766262    15A     -0.694701
      16A     -0.673978    17A     -0.661888    18A     -0.614538
      19A     -0.586916    20A     -0.578996    21A     -0.562957
      22A     -0.550609    23A     -0.538661    24A     -0.521442
      25A     -0.503975    26A     -0.483253    27A     -0.450865
      28A     -0.438777

  @DF-RHF Final Energy:  -345.04333471282035

   => Energetics <=

    Nuclear Repulsion Energy =            323.8370490964367150
    One-Electron Energy =               -1112.1910027157434797
    Two-Electron Energy =                 443.3106189064864111
    DFT Exchange-Correlation Energy =       0.0000000000000000
    Empirical Dispersion Energy =           0.0000000000000000
    PCM Polarization Energy =               0.0000000000000000
    EFP Energy =                            0.0000000000000000
    Total Energy =                       -345.0433347128204105
    Molecular point group: c1
  Basis Set: CC-PVTZ
  Basis Set:

  -Total Gradient:
     Atom            X                  Y                   Z
    ------   -----------------  -----------------  -----------------
       1        0.000004688242     0.000014230600    -0.000010703921
       2        0.000027003474     0.000398282704     0.000606041206
       3        0.000002011481     0.000013398976     0.000008823147
       4       -0.000008154744    -0.000778587585    -0.000920967509
       5       -0.000002297145    -0.000001760522    -0.000005483343
       6        0.000002744558    -0.000001228539    -0.000000545419
       7       -0.000001250265    -0.000007699598    -0.000000280046
       8       -0.000223607344     0.001106917038     0.000580476722
       9       -0.000011352678     0.000005886695     0.000000866149
      10       -0.000044095743     0.000014111832    -0.000003816774
      11        0.000225287143    -0.000737808299    -0.000261643831
      12        0.000001227153    -0.000002460493     0.000001435651
      13        0.000002442157    -0.000003072033     0.000000051875
      14        0.000005069549    -0.000003845789     0.000000844358
      15        0.000005298273    -0.000009162780    -0.000001759470
      16        0.000007474355    -0.000006718787     0.000002645758
      17        0.000007511538    -0.000000483420     0.000004015452

  **** Optimization is complete! (in 5 steps) ****
    Final optimized geometry and variables:
    Molecular point group: c1

    Geometry (in Angstrom), charge = 0, multiplicity = 1:

    O           -1.277559231318     1.005910803483    -0.810820307033
    C           -1.201123144315     0.044327686765    -0.123693891931
    C           -2.381512378977    -0.679642059272     0.460855452903
    O           -0.063736343605    -0.530967088510     0.220558431110
    H           -2.376415788666    -1.710128151279     0.130090161266
    H           -3.292906770669    -0.193976951654     0.152249768410
    H           -2.306931317770    -0.681038848831     1.540719478882
    C            1.172885180692     0.031242297973    -0.230601044454
    C            2.188166433714    -1.093195281558    -0.176258409778
    C            1.557863323256     1.216842511878     0.635877421651
    H            1.036777918356     0.352497136998    -1.252566878119
    H            1.875367670884    -1.921358154479    -0.799147925145
    H            3.149820807215    -0.742040617390    -0.530558348089
    H            2.307504105831    -1.454335946564     0.838264116183
    H            2.503404022503     1.626154299714     0.299918060059
    H            0.812234111105     1.996643398390     0.577506478509
    H            1.667629309017     0.910218735766     1.670006752674

  Mulliken Charges: (a.u.)
   Center  Symbol    Alpha    Beta     Spin     Total
       1     O     4.19936  4.19936  0.00000 -0.39871
       2     C     2.80613  2.80613  0.00000  0.38774
       3     C     3.13889  3.13889  0.00000 -0.27779
       4     O     4.16345  4.16345  0.00000 -0.32691
       5     H     0.44581  0.44581  0.00000  0.10837
       6     H     0.43842  0.43842  0.00000  0.12316
       7     H     0.44629  0.44629  0.00000  0.10741
       8     C     2.93020  2.93020  0.00000  0.13959
       9     C     3.13824  3.13824  0.00000 -0.27649
      10     C     3.15552  3.15552  0.00000 -0.31105
      11     H     0.44321  0.44321  0.00000  0.11358
      12     H     0.44692  0.44692  0.00000  0.10616
      13     H     0.45427  0.45427  0.00000  0.09147
      14     H     0.45251  0.45251  0.00000  0.09499
      15     H     0.44982  0.44982  0.00000  0.10036
      16     H     0.43724  0.43724  0.00000  0.12553
      17     H     0.45371  0.45371  0.00000  0.09258

   Total alpha = 28.00000, Total beta = 28.00000, Total charge = -0.00000
