  ==> Input File <==

--------------------------------------------------------------------------
set {
	reference rhf
	basis cc-pvtz
}

set_num_threads( 4 )
memory 2 gb

molecule MOL {
0 1

H	 -2.271061	 -1.051911	 -0.463258
O	 -2.346257	 -0.289210	 0.080372
C	 -1.183935	 0.486039	 -0.009831
C	 0.062853	 -0.375310	 0.027457
H	 -1.178881	 1.094526	 -0.908634
H	 -1.184406	 1.155156	 0.838676
O	 1.172093	 0.457955	 -0.054438
H	 0.052476	 -1.081302	 -0.804627
H	 0.076323	 -0.955658	 0.947560
C	 2.395478	 -0.199028	 -0.000366
H	 2.505946	 -0.901710	 -0.823354
H	 3.174616	 0.545641	 -0.071768
H	 2.513730	 -0.742241	 0.934223

	symmetry c1
}
set optking {
	frozen_dihedral = ("
		1 2 3 5
	")
}

ee = optimize('scf')
oeprop('DIPOLE', 'QUADRUPOLE', 'MULLIKEN_CHARGES')
f=open( 'psi4out.xyz', 'w' )
f.write( "13  " )
f.write( str(ee) + "\n" )
f.write( MOL.save_string_xyz() )
f.close()
--------------------------------------------------------------------------

    Molecular point group: c1
  Charge       = 0
  Multiplicity = 1
  Basis Set: CC-PVTZ
  Basis Set:
  @DF-RHF Final Energy:  -268.06110935863649
    Total Energy =                       -268.0611093586363722
    Molecular point group: c1
  Basis Set: CC-PVTZ
  Basis Set:
  Basis Set: CC-PVTZ
  Basis Set:
  @DF-RHF Final Energy:  -268.06115066539132
    Total Energy =                       -268.0611506653914944
  Basis Set: CC-PVTZ
  Basis Set:
  Charge       = 0
  Multiplicity = 1
  Basis Set: CC-PVTZ
  Basis Set:

    Orbital Energies (a.u.)
    -----------------------

    Doubly Occupied:

       1A    -20.559221     2A    -20.552189     3A    -11.274607
       4A    -11.270131     5A    -11.267122     6A     -1.395332
       7A     -1.368797     8A     -1.021506     9A     -0.915548
      10A     -0.848898    11A     -0.705482    12A     -0.680550
      13A     -0.669828    14A     -0.634096    15A     -0.600652
      16A     -0.580018    17A     -0.546211    18A     -0.497300
      19A     -0.477160    20A     -0.443275    21A     -0.427931

  @DF-RHF Final Energy:  -268.06115739540542

   => Energetics <=

    Nuclear Repulsion Energy =            190.6372864359432526
    One-Electron Energy =                -743.9251766839931861
    Two-Electron Energy =                 285.2267328526446590
    DFT Exchange-Correlation Energy =       0.0000000000000000
    Empirical Dispersion Energy =           0.0000000000000000
    PCM Polarization Energy =               0.0000000000000000
    EFP Energy =                            0.0000000000000000
    Total Energy =                       -268.0611573954053029
    Molecular point group: c1
  Basis Set: CC-PVTZ
  Basis Set:

  -Total Gradient:
     Atom            X                  Y                   Z
    ------   -----------------  -----------------  -----------------
       1        0.000954552032    -0.001295366647     0.001847693015
       2       -0.001471365266     0.002030051005    -0.001990503983
       3        0.001599641782    -0.002238365882    -0.000950526045
       4        0.000034809632    -0.000171690231    -0.000046227667
       5       -0.000993523393     0.001550010197     0.001113994390
       6       -0.000044583792    -0.000007028654    -0.000008840423
       7        0.000043045838     0.000070931700     0.000036398406
       8       -0.000031314387    -0.000003444958    -0.000036951011
       9        0.000025924684     0.000077723334     0.000018781678
      10       -0.000117684433    -0.000010249738     0.000023730027
      11       -0.000000278659    -0.000004870500    -0.000010345813
      12       -0.000015276519     0.000011050764    -0.000003173514
      13        0.000016052477    -0.000008750388     0.000005970940

  **** Optimization is complete! (in 3 steps) ****
    Final optimized geometry and variables:
    Molecular point group: c1

    Geometry (in Angstrom), charge = 0, multiplicity = 1:

    H           -2.292469570705    -1.039954158154    -0.478637037505
    O           -2.354731375079    -0.280967213104     0.072536267031
    C           -1.185470337667     0.484688375657    -0.013083337425
    C            0.063131245807    -0.372149483570     0.029199513180
    H           -1.184055289457     1.100432829153    -0.907041363525
    H           -1.187990805482     1.153439591042     0.836250117001
    O            1.169685769898     0.461505402111    -0.057612142571
    H            0.055446678882    -1.082126610169    -0.801067883925
    H            0.080062439076    -0.948108604333     0.952645811166
    C            2.394347036761    -0.193897925699    -0.004683438996
    H            2.503888387114    -0.898032748670    -0.826474491003
    H            3.171514986327     0.552219939067    -0.079720311775
    H            2.515556210625    -0.734414235722     0.931060836246

  Mulliken Charges: (a.u.)
   Center  Symbol    Alpha    Beta     Spin     Total
       1     H     0.39450  0.39450  0.00000  0.21100
       2     O     4.20196  4.20196  0.00000 -0.40393
       3     C     2.96194  2.96194  0.00000  0.07611
       4     C     2.97195  2.97195  0.00000  0.05610
       5     H     0.46898  0.46898  0.00000  0.06203
       6     H     0.45664  0.45664  0.00000  0.08672
       7     O     4.17330  4.17330  0.00000 -0.34659
       8     H     0.48356  0.48356  0.00000  0.03288
       9     H     0.46860  0.46860  0.00000  0.06280
      10     C     3.03256  3.03256  0.00000 -0.06513
      11     H     0.47100  0.47100  0.00000  0.05799
      12     H     0.44520  0.44520  0.00000  0.10961
      13     H     0.46979  0.46979  0.00000  0.06041

   Total alpha = 21.00000, Total beta = 21.00000, Total charge = -0.00000
