                              Psi4 1.0.54 Driver

  ==> Input File <==

--------------------------------------------------------------------------
set {
	reference rhf
	basis cc-pvtz
}

set_num_threads( 4 )
memory 2 gb

molecule MOL {
0 1

H	 -0.000342	 -0.223902	 -3.352295
C	 -0.027146	 0.371068	 -2.446756
C	 0.024493	 -0.518541	 -1.216015
H	 -0.932586	 0.964979	 -2.449855
H	 0.819708	 1.049865	 -2.473332
N	 -0.042516	 0.263377	 0.000000
H	 -0.822211	 -1.197105	 -1.225584
H	 0.921114	 -1.142847	 -1.255206
C	 0.024493	 -0.518541	 1.216015
H	 0.682568	 0.950412	 0.000000
C	 1.461047	 -0.697586	 1.677586
H	 -0.538183	 0.004325	 1.982472
H	 -0.446221	 -1.498643	 1.101771
H	 1.931285	 0.263995	 1.841295
H	 1.500191	 -1.263734	 2.600978
H	 2.044826	 -1.234992	 0.936620

	symmetry c1
}
set optking {
	frozen_dihedral = ("
		12 9 6 3
	")
}

ee,wfn = optimize('scf', return_wfn=True)
oeprop( wfn, 'DIPOLE', 'QUADRUPOLE', 'MULLIKEN_CHARGES')
f=open( 'psi4out.xyz', 'w' )
f.write( "16  " )
f.write( str(ee) + "\n" )
f.write( MOL.save_string_xyz() )
f.close()
--------------------------------------------------------------------------

    Molecular point group: c1
  Charge       = 0
  Multiplicity = 1
  Basis Set: CC-PVTZ
  Basis Set:
  @DF-RHF Final Energy:  -212.38932449628933
    Total Energy =                       -212.3893244962891345
    Molecular point group: c1
  Basis Set: CC-PVTZ
  Basis Set:
  Basis Set: CC-PVTZ
  Basis Set:
  @DF-RHF Final Energy:  -212.39084033666711
    Total Energy =                       -212.3908403366669404
  Basis Set: CC-PVTZ
  Basis Set:
  Basis Set: CC-PVTZ
  Basis Set:
  @DF-RHF Final Energy:  -212.39107648139981
    Total Energy =                       -212.3910764813998640
  Basis Set: CC-PVTZ
  Basis Set:
  Basis Set: CC-PVTZ
  Basis Set:
  @DF-RHF Final Energy:  -212.39108943311430
    Total Energy =                       -212.3910894331141890
  Basis Set: CC-PVTZ
  Basis Set:
  Charge       = 0
  Multiplicity = 1
  Basis Set: CC-PVTZ
  Basis Set:

    Orbital Energies (a.u.)
    -----------------------

    Doubly Occupied:

       1A    -15.525835     2A    -11.238977     3A    -11.238669
       4A    -11.207898     5A    -11.206113     6A     -1.203540
       7A     -1.026646     8A     -0.965165     9A     -0.843260
      10A     -0.817776    11A     -0.648592    12A     -0.628649
      13A     -0.619365    14A     -0.567752    15A     -0.559150
      16A     -0.528848    17A     -0.509559    18A     -0.491707
      19A     -0.488162    20A     -0.474112    21A     -0.354440

  @DF-RHF Final Energy:  -212.39109103255052

   => Energetics <=

    Nuclear Repulsion Energy =            190.7357049531661062
    One-Electron Energy =                -663.9651652170788338
    Two-Electron Energy =                 260.8383692313623783
    DFT Exchange-Correlation Energy =       0.0000000000000000
    Empirical Dispersion Energy =           0.0000000000000000
    PCM Polarization Energy =               0.0000000000000000
    EFP Energy =                            0.0000000000000000
    Total Energy =                       -212.3910910325503778
    Molecular point group: c1
  Basis Set: CC-PVTZ
  Basis Set:

  -Total Gradient:
     Atom            X                  Y                   Z
    ------   -----------------  -----------------  -----------------
       1        0.000000244368     0.000000898666     0.000006411506
       2       -0.000008685446     0.000006356658     0.000019376956
       3       -0.001870888517    -0.000307912339    -0.000061615535
       4       -0.000007864615     0.000000555685    -0.000001940916
       5        0.000007977334    -0.000003320164     0.000000920010
       6        0.002219241891     0.000094598880    -0.000161469491
       7       -0.000003520506     0.000018565823     0.000006361879
       8       -0.000009065069     0.000020792065     0.000015446770
       9        0.001751509173     0.001466992658     0.000849130423
      10       -0.000005562239    -0.000037772197     0.000021657985
      11       -0.000072853487     0.000027430070    -0.000077997162
      12       -0.001974380915    -0.001260059738    -0.000639336464
      13       -0.000016337387    -0.000014665806    -0.000022304934
      14       -0.000000408039    -0.000018677645    -0.000007940004
      15       -0.000004759936    -0.000014643306     0.000030032409
      16       -0.000004646609     0.000020860690     0.000023266567

  **** Optimization is complete! (in 5 steps) ****
    Final optimized geometry and variables:
    Molecular point group: c1

    Geometry (in Angstrom), charge = 0, multiplicity = 1:

    H           -0.315348619485     0.044231242174    -3.213759891981
    C           -0.350444382738     0.622254274400    -2.297594813160
    C           -0.263352096243    -0.287414562418    -1.083477620552
    H           -1.272011508152     1.190781192720    -2.281752786443
    H            0.477409439119     1.324302439810    -2.319317796104
    N           -0.355956443434     0.476816247163     0.142877811503
    H           -1.089781906947    -0.989583735109    -1.101992059837
    H            0.651073291763    -0.881663238527    -1.147547945743
    C           -0.264730966442    -0.283219411126     1.375341609305
    H            0.299703741646     1.228675448940     0.140830783013
    C            1.152376062473    -0.534072020387     1.882650661298
    H           -0.843356979095     0.222455146805     2.141501644353
    H           -0.762641381218    -1.233208590235     1.213944505563
    H            1.658108065008     0.403316515918     2.092374183825
    H            1.137029616765    -1.112171276233     2.800433207621
    H            1.744931177455    -1.077717125363     1.155586213649

  Mulliken Charges: (a.u.)
   Center  Symbol    Alpha    Beta     Spin     Total
       1     H     0.45398  0.45398  0.00000  0.09204
       2     C     3.14274  3.14274  0.00000 -0.28549
       3     C     3.01992  3.01992  0.00000 -0.03984
       4     H     0.44940  0.44940  0.00000  0.10119
       5     H     0.45940  0.45940  0.00000  0.08121
       6     N     3.63975  3.63975  0.00000 -0.27951
       7     H     0.45828  0.45828  0.00000  0.08344
       8     H     0.47560  0.47560  0.00000  0.04879
       9     C     3.03549  3.03549  0.00000 -0.07098
      10     H     0.44550  0.44550  0.00000  0.10901
      11     C     3.14657  3.14657  0.00000 -0.29315
      12     H     0.45024  0.45024  0.00000  0.09951
      13     H     0.45939  0.45939  0.00000  0.08122
      14     H     0.45829  0.45829  0.00000  0.08341
      15     H     0.45199  0.45199  0.00000  0.09602
      16     H     0.45344  0.45344  0.00000  0.09312

   Total alpha = 21.00000, Total beta = 21.00000, Total charge = -0.00000

*** Psi4 exiting successfully. Buy a developer a beer!
