  ==> Input File <==

--------------------------------------------------------------------------
set {
	reference rhf
	basis 6-31G*
}

set_num_threads( 4 )
memory 2 gb

molecule MOL {
0 1

H	 2.417044	 -1.869900	 -0.361916
O	 2.826016	 -1.159218	 0.122261
C	 2.077727	 -0.067559	 -0.035091
C	 0.624473	 -0.343591	 0.253101
O	 2.542965	 0.974826	 -0.363729
C	 -0.265902	 0.883932	 0.072916
H	 0.324016	 -1.163849	 -0.390541
H	 0.565024	 -0.726111	 1.268924
C	 -1.728698	 0.646073	 0.462102
H	 -0.209144	 1.219470	 -0.958188
H	 0.135059	 1.692851	 0.673903
C	 -2.482460	 -0.343073	 -0.431425
H	 -2.245265	 1.602650	 0.432430
H	 -1.779332	 0.308348	 1.496285
C	 -3.960546	 -0.461025	 -0.060175
H	 -2.395034	 -0.026811	 -1.468912
H	 -2.024850	 -1.327147	 -0.371646
H	 -4.472726	 -1.168004	 -0.705284
H	 -4.465146	 0.496508	 -0.151489
H	 -4.081218	 -0.800940	 0.964585

	symmetry c1
}
set optking {
	frozen_dihedral = ("
		1 2 3 5
	")
}

ee = optimize('scf')
oeprop('DIPOLE', 'QUADRUPOLE', 'MULLIKEN_CHARGES')
f=open( 'psi4out.xyz', 'w' )
f.write( "20  " )
f.write( str(ee) + "\n" )
f.write( MOL.save_string_xyz() )
f.close()
--------------------------------------------------------------------------

    Molecular point group: c1
  Charge       = 0
  Multiplicity = 1
  Basis Set: 6-31G*
  Basis Set:
  @DF-RHF Final Energy:  -383.92919322412939
    Total Energy =                       -383.9291932241295626
    Molecular point group: c1
  Basis Set: 6-31G*
  Basis Set:
  Basis Set: 6-31G*
  Basis Set:
  @DF-RHF Final Energy:  -383.93064006822578
    Total Energy =                       -383.9306400682256708
  Basis Set: 6-31G*
  Basis Set:
  Basis Set: 6-31G*
  Basis Set:
  @DF-RHF Final Energy:  -383.93074666025529
    Total Energy =                       -383.9307466602554086
  Basis Set: 6-31G*
  Basis Set:
  Basis Set: 6-31G*
  Basis Set:
  @DF-RHF Final Energy:  -383.93062136613537
    Total Energy =                       -383.9306213661355969
  Basis Set: 6-31G*
  Basis Set:
  Basis Set: 6-31G*
  Basis Set:
  @DF-RHF Final Energy:  -383.93077902894828
    Total Energy =                       -383.9307790289484501
  Basis Set: 6-31G*
  Basis Set:
  Basis Set: 6-31G*
  Basis Set:
  @DF-RHF Final Energy:  -383.93078007227922
    Total Energy =                       -383.9307800722791626
  Basis Set: 6-31G*
  Basis Set:
  Charge       = 0
  Multiplicity = 1
  Basis Set: 6-31G*
  Basis Set:

    Orbital Energies (a.u.)
    -----------------------

    Doubly Occupied:

       1A    -20.601722     2A    -20.556223     3A    -11.380881
       4A    -11.248175     5A    -11.227167     6A    -11.225239
       7A    -11.224239     8A    -11.216109     9A     -1.462655
      10A     -1.369453    11A     -1.099934    12A     -1.043083
      13A     -0.960113    14A     -0.865946    15A     -0.824164
      16A     -0.789434    17A     -0.717728    18A     -0.669928
      19A     -0.662135    20A     -0.636870    21A     -0.614931
      22A     -0.589621    23A     -0.569528    24A     -0.563112
      25A     -0.532725    26A     -0.517271    27A     -0.498058
      28A     -0.489329    29A     -0.473909    30A     -0.468225
      31A     -0.461462    32A     -0.441981

  @DF-RHF Final Energy:  -383.93078011642035

   => Energetics <=

    Nuclear Repulsion Energy =            375.4791571958270424
    One-Electron Energy =               -1266.8171767463663855
    Two-Electron Energy =                 507.4072394341189352
    DFT Exchange-Correlation Energy =       0.0000000000000000
    Empirical Dispersion Energy =           0.0000000000000000
    PCM Polarization Energy =               0.0000000000000000
    EFP Energy =                            0.0000000000000000
    Total Energy =                       -383.9307801164204079
    Molecular point group: c1
  Basis Set: 6-31G*
  Basis Set:

  -Total Gradient:
     Atom            X                  Y                   Z
    ------   -----------------  -----------------  -----------------
       1        0.003498864172     0.001950408688    -0.005421834574
       2       -0.004770182421    -0.003041337777     0.004326077309
       3        0.002050619916     0.002386332822     0.006745856808
       4        0.000024020937    -0.000011333755     0.000020886806
       5       -0.000801475484    -0.001289074822    -0.005660546893
       6       -0.000009684642     0.000010792962     0.000013155841
       7       -0.000009809654    -0.000010460410    -0.000013735342
       8       -0.000002128817     0.000002429757    -0.000012469240
       9       -0.000004595761     0.000008669623    -0.000008122744
      10        0.000001758955     0.000005072926     0.000003918275
      11        0.000003895411    -0.000007385932     0.000006329261
      12        0.000009263453     0.000000084815    -0.000001884705
      13       -0.000003780335    -0.000003881635    -0.000008013255
      14       -0.000000566057     0.000009118829     0.000004970248
      15       -0.000000080705    -0.000003180531     0.000004587717
      16        0.000000787140     0.000000781291     0.000006492919
      17        0.000014721234    -0.000007569322    -0.000005689448
      18        0.000000522787    -0.000001186417     0.000001090771
      19       -0.000000702856     0.000000129447    -0.000001978502
      20       -0.000001447269     0.000001589439     0.000000908747

  **** Optimization is complete! (in 7 steps) ****
    Final optimized geometry and variables:
    Molecular point group: c1

    Geometry (in Angstrom), charge = 0, multiplicity = 1:

    H            2.559247349552    -1.892964852338    -0.381743871218
    O            2.891725429911    -1.147862066380     0.102118664914
    C            2.089713033080    -0.067118493107    -0.028763210634
    C            0.627544961289    -0.338073682540     0.252758325179
    O            2.537475696090     0.982575073452    -0.327955284483
    C           -0.262803769228     0.889214384859     0.069990864905
    H            0.310255284542    -1.156026049479    -0.390592155200
    H            0.563684078026    -0.719779453137     1.269132911376
    C           -1.726064574054     0.656117634432     0.460040146573
    H           -0.204577347415     1.222952201372    -0.961633985962
    H            0.142113327488     1.696555185206     0.669642682791
    C           -2.483187043492    -0.334788707586    -0.428747342266
    H           -2.239776528431     1.613912555119     0.425700052557
    H           -1.777748339610     0.323810107597     1.495857103014
    C           -3.962145722901    -0.444484046014    -0.058498717397
    H           -2.393307387959    -0.025070475045    -1.468031404159
    H           -2.030323953590    -1.321027661336    -0.362603262751
    H           -4.476510725269    -1.153572563791    -0.699493581424
    H           -4.462426656604     0.514482935513    -0.156935386838
    H           -4.085328576193    -0.776830024828     0.968387389602

  Mulliken Charges: (a.u.)
   Center  Symbol    Alpha    Beta     Spin     Total
       1     H     0.26925  0.26925  0.00000  0.46150
       2     O     4.36157  4.36157  0.00000 -0.72314
       3     C     2.61825  2.61825  0.00000  0.76351
       4     C     3.22341  3.22341  0.00000 -0.44682
       5     O     4.25151  4.25151  0.00000 -0.50302
       6     C     3.15357  3.15357  0.00000 -0.30715
       7     H     0.41235  0.41235  0.00000  0.17529
       8     H     0.39776  0.39776  0.00000  0.20448
       9     C     3.15601  3.15601  0.00000 -0.31202
      10     H     0.41227  0.41227  0.00000  0.17546
      11     H     0.40490  0.40490  0.00000  0.19020
      12     C     3.15473  3.15473  0.00000 -0.30947
      13     H     0.41668  0.41668  0.00000  0.16665
      14     H     0.42314  0.42314  0.00000  0.15372
      15     C     3.23924  3.23924  0.00000 -0.47847
      16     H     0.42129  0.42129  0.00000  0.15742
      17     H     0.42517  0.42517  0.00000  0.14967
      18     H     0.41821  0.41821  0.00000  0.16359
      19     H     0.41976  0.41976  0.00000  0.16048
      20     H     0.42095  0.42095  0.00000  0.15811

   Total alpha = 32.00000, Total beta = 32.00000, Total charge =  0.00000
