  ==> Input File <==

--------------------------------------------------------------------------
set {
	reference rhf
	basis 6-31G*
}

set_num_threads( 4 )
memory 2 gb

molecule MOL {
0 1

O	 2.700007	 -0.259784	 0.532909
C	 1.705091	 0.115954	 0.001797
C	 0.381791	 -0.609817	 0.001258
O	 1.628478	 1.255643	 -0.673760
C	 -0.823008	 0.326187	 0.001381
H	 0.371250	 -1.265087	 -0.865474
H	 0.370908	 -1.265746	 0.867490
C	 -2.149452	 -0.435131	 -0.000098
H	 -0.770201	 0.977095	 -0.865636
H	 -0.771220	 0.975655	 0.869608
C	 -3.368779	 0.488503	 -0.000883
H	 -2.193746	 -1.087250	 -0.871175
H	 -2.195311	 -1.087803	 0.870418
C	 -4.693822	 -0.272754	 -0.001129
H	 -3.325798	 1.139422	 -0.871284
H	 -3.326423	 1.139959	 0.869145
H	 -4.781274	 -0.907928	 -0.878124
H	 -5.538651	 0.408946	 -0.001420
H	 -4.781694	 -0.907783	 0.875984
C	 2.806001	 2.038399	 -0.749191
H	 3.132196	 2.330334	 0.238685
H	 2.544607	 2.909559	 -1.329388
H	 3.597854	 1.487795	 -1.236334

	symmetry c1
}
set optking {
	frozen_dihedral = ("
		1 2 3 6
	")
}

ee = optimize('scf')
oeprop('DIPOLE', 'QUADRUPOLE', 'MULLIKEN_CHARGES')
f=open( 'psi4out.xyz', 'w' )
f.write( "23  " )
f.write( str(ee) + "\n" )
f.write( MOL.save_string_xyz() )
f.close()
--------------------------------------------------------------------------

    Molecular point group: c1
  Charge       = 0
  Multiplicity = 1
  Basis Set: 6-31G*
  Basis Set:
  @DF-RHF Final Energy:  -422.97353874503199
    Total Energy =                       -422.9735387450321014
    Molecular point group: c1
  Basis Set: 6-31G*
  Basis Set:
  Basis Set: 6-31G*
  Basis Set:
  @DF-RHF Final Energy:  -422.97247883603029
    Total Energy =                       -422.9724788360302909
  Basis Set: 6-31G*
  Basis Set:
  Basis Set: 6-31G*
  Basis Set:
  @DF-RHF Final Energy:  -422.97382566124264
    Total Energy =                       -422.9738256612425857
  Basis Set: 6-31G*
  Basis Set:
  Basis Set: 6-31G*
  Basis Set:
  @DF-RHF Final Energy:  -422.97433821954968
    Total Energy =                       -422.9743382195495087
  Basis Set: 6-31G*
  Basis Set:
  Basis Set: 6-31G*
  Basis Set:
  @DF-RHF Final Energy:  -422.97434728536655
    Total Energy =                       -422.9743472853666617
  Basis Set: 6-31G*
  Basis Set:
  Basis Set: 6-31G*
  Basis Set:
  @DF-RHF Final Energy:  -422.97434994341415
    Total Energy =                       -422.9743499434146088
  Basis Set: 6-31G*
  Basis Set:
  Charge       = 0
  Multiplicity = 1
  Basis Set: 6-31G*
  Basis Set:

    Orbital Energies (a.u.)
    -----------------------

    Doubly Occupied:

       1A    -20.605375     2A    -20.542119     3A    -11.371763
       4A    -11.281331     5A    -11.235208     6A    -11.224937
       7A    -11.220637     8A    -11.219378     9A    -11.211700
      10A     -1.469605    11A     -1.361087    12A     -1.096208
      13A     -1.044999    14A     -0.983211    15A     -0.935776
      16A     -0.848158    17A     -0.797617    18A     -0.774101
      19A     -0.692952    20A     -0.682439    21A     -0.671302
      22A     -0.653415    23A     -0.609663    24A     -0.592511
      25A     -0.577628    26A     -0.565954    27A     -0.552105
      28A     -0.525217    29A     -0.523450    30A     -0.506980
      31A     -0.488479    32A     -0.478777    33A     -0.470414
      34A     -0.468546    35A     -0.453949    36A     -0.425887

  @DF-RHF Final Energy:  -422.97435022265768

   => Energetics <=

    Nuclear Repulsion Energy =            454.9974493045190229
    One-Electron Energy =               -1477.6178472137607969
    Two-Electron Energy =                 599.6460476865843248
    DFT Exchange-Correlation Energy =       0.0000000000000000
    Empirical Dispersion Energy =           0.0000000000000000
    PCM Polarization Energy =               0.0000000000000000
    EFP Energy =                            0.0000000000000000
    Total Energy =                       -422.9743502226574492
    Molecular point group: c1
  Basis Set: 6-31G*
  Basis Set:

  -Total Gradient:
     Atom            X                  Y                   Z
    ------   -----------------  -----------------  -----------------
       1        0.000248160310    -0.000476498901    -0.000772858240
       2       -0.000286796185     0.000523414482     0.001227481722
       3       -0.000287014775     0.000622097350    -0.000914404063
       4       -0.000037051687    -0.000002451116    -0.000010648247
       5        0.000015477273     0.000007107241    -0.000012741240
       6        0.000343383726    -0.000676982130     0.000457211735
       7       -0.000004950572     0.000013354344    -0.000014159911
       8       -0.000015257207    -0.000004472813     0.000024953564
       9        0.000011307019     0.000004510039     0.000005321267
      10        0.000006908792    -0.000008122520     0.000012490521
      11        0.000002163027     0.000001402940    -0.000019296310
      12        0.000008731460    -0.000002226067     0.000009394006
      13       -0.000009641665     0.000005452224     0.000014690666
      14        0.000006270615    -0.000005412747    -0.000006085905
      15        0.000002403563     0.000008862204    -0.000002299815
      16       -0.000000358062    -0.000009210300    -0.000000347073
      17       -0.000003003987     0.000000042454    -0.000001695708
      18        0.000004638396     0.000002164574     0.000000542245
      19        0.000001950676    -0.000001246096    -0.000000121010
      20        0.000002439225    -0.000000013514     0.000010223804
      21        0.000000825607     0.000001491981    -0.000004502579
      22       -0.000009917189    -0.000004302360    -0.000002465518
      23       -0.000000668368     0.000001038734    -0.000000683915

  **** Optimization is complete! (in 7 steps) ****
    Final optimized geometry and variables:
    Molecular point group: c1

    Geometry (in Angstrom), charge = 0, multiplicity = 1:

    O            2.839510933715    -0.596697566421     0.637616847674
    C            1.870304455523    -0.159517659116     0.104555117902
    C            0.532115780307    -0.860601341497     0.075847778926
    O            1.869933645779     0.981791451134    -0.569816483120
    C           -0.696455693086     0.051323907518     0.084780238141
    H            0.531021623688    -1.483565857050    -0.816395086056
    H            0.524463438756    -1.537167190739     0.921682687435
    C           -2.002036786011    -0.745312970540     0.108008748766
    H           -0.675254082158     0.696947506486    -0.785947443014
    H           -0.655383224115     0.703757440865     0.953824585531
    C           -3.246052916186     0.144725916320     0.111124341137
    H           -2.036617142954    -1.406737475367    -0.756334053639
    H           -2.019418205283    -1.389556852827     0.985330085854
    C           -4.549443126724    -0.652844274887     0.130598610769
    H           -3.229650518883     0.788735564729    -0.765384701541
    H           -3.213814792828     0.804643722364     0.975312248085
    H           -4.627835699404    -1.297582299223    -0.740212250613
    H           -5.412696271831     0.005276514066     0.133273163881
    H           -4.610844145421    -1.282467126129     1.013713738351
    C            3.094986175704     1.689786495581    -0.633670743898
    H            3.432311191175     1.954332726057     0.357943923917
    H            2.891843653614     2.578811382644    -1.210126866275
    H            3.853018332761     1.092523528605    -1.119397632499

  Mulliken Charges: (a.u.)
   Center  Symbol    Alpha    Beta     Spin     Total
       1     O     4.28835  4.28835  0.00000 -0.57670
       2     C     2.60720  2.60720  0.00000  0.78560
       3     C     3.20670  3.20670  0.00000 -0.41341
       4     O     4.30304  4.30304  0.00000 -0.60608
       5     C     3.15669  3.15669  0.00000 -0.31339
       6     H     0.40139  0.40139  0.00000  0.19722
       7     H     0.39786  0.39786  0.00000  0.20428
       8     C     3.15343  3.15343  0.00000 -0.30687
       9     H     0.40863  0.40863  0.00000  0.18273
      10     H     0.41769  0.41769  0.00000  0.16463
      11     C     3.15178  3.15178  0.00000 -0.30357
      12     H     0.42291  0.42291  0.00000  0.15418
      13     H     0.42188  0.42188  0.00000  0.15624
      14     C     3.23968  3.23968  0.00000 -0.47937
      15     H     0.42187  0.42187  0.00000  0.15626
      16     H     0.42188  0.42188  0.00000  0.15624
      17     H     0.42135  0.42135  0.00000  0.15730
      18     H     0.41838  0.41838  0.00000  0.16324
      19     H     0.42110  0.42110  0.00000  0.15780
      20     C     3.09244  3.09244  0.00000 -0.18488
      21     H     0.40833  0.40833  0.00000  0.18333
      22     H     0.40876  0.40876  0.00000  0.18248
      23     H     0.40864  0.40864  0.00000  0.18271

   Total alpha = 36.00000, Total beta = 36.00000, Total charge =  0.00000
