  ==> Input File <==

--------------------------------------------------------------------------
set {
	reference rhf
	basis 6-31G*
}

set_num_threads( 1 )
memory 2 gb

molecule MOL {
0 1

O	 1.846825	 1.296220	 0.000415
C	 1.705091	 0.115954	 0.001797
C	 0.381791	 -0.609817	 0.001258
O	 2.721346	 -0.737485	 -0.000216
C	 -0.823008	 0.326187	 0.001381
H	 0.371250	 -1.265087	 -0.865474
H	 0.370908	 -1.265746	 0.867490
C	 -1.876893	 -0.084164	 -1.028182
H	 -0.488504	 1.339601	 -0.196833
H	 -1.263071	 0.342542	 0.993543
C	 -3.092225	 0.844613	 -1.042262
H	 -1.428547	 -0.102154	 -2.020481
H	 -2.206561	 -1.102060	 -0.825479
C	 -4.145433	 0.433390	 -2.070318
H	 -2.764881	 1.861469	 -1.247175
H	 -3.541713	 0.862966	 -0.051928
H	 -3.735088	 0.438984	 -3.076201
H	 -4.993941	 1.110353	 -2.055936
H	 -4.517780	 -0.567718	 -1.871693
C	 4.024888	 -0.184556	 -0.001949
H	 4.179030	 0.422472	 -0.882452
H	 4.701782	 -1.024608	 -0.003642
H	 4.181981	 0.421185	 0.878906

	symmetry c1
}
set optking {
	frozen_dihedral = ("
		15 11 8 12,
		9 5 8 12,
		1 2 3 6,
		1 2 4 20
	")
}

ee = energy('scf')
oeprop('DIPOLE', 'QUADRUPOLE', 'MULLIKEN_CHARGES')
f=open( 'psi4out.xyz', 'w' )
f.write( "23  " )
f.write( str(ee) + "\n" )
f.write( MOL.save_string_xyz() )
f.close()
--------------------------------------------------------------------------

    Molecular point group: c1

    Geometry (in Angstrom), charge = 0, multiplicity = 1:

       Center              X                  Y                   Z               Mass
    ------------   -----------------  -----------------  -----------------  -----------------
           O          1.724335797036     1.138495023343     0.462327414887    15.994914619560
           C          1.582601797036    -0.041770976657     0.463709414887    12.000000000000
           C          0.259301797036    -0.767541976657     0.463170414887    12.000000000000
           O          2.598856797036    -0.895209976657     0.461696414887    15.994914619560
           C         -0.945497202964     0.168462023343     0.463293414887    12.000000000000
           H          0.248760797036    -1.422811976657    -0.403561585113     1.007825032070
           H          0.248418797036    -1.423470976657     1.329402414887     1.007825032070
           C         -1.999382202964    -0.241888976657    -0.566269585113    12.000000000000
           H         -0.610993202964     1.181876023343     0.265079414887     1.007825032070
           H         -1.385560202964     0.184817023343     1.455455414887     1.007825032070
           C         -3.214714202964     0.686888023343    -0.580349585113    12.000000000000
           H         -1.551036202964    -0.259878976657    -1.558568585113     1.007825032070
           H         -2.329050202964    -1.259784976657    -0.363566585113     1.007825032070
           C         -4.267922202964     0.275665023343    -1.608405585113    12.000000000000
           H         -2.887370202964     1.703744023343    -0.785262585113     1.007825032070
           H         -3.664202202964     0.705241023343     0.409984414887     1.007825032070
           H         -3.857577202964     0.281259023343    -2.614288585113     1.007825032070
           H         -5.116430202964     0.952628023343    -1.594023585113     1.007825032070
           H         -4.640269202964    -0.725442976657    -1.409780585113     1.007825032070
           C          3.902398797036    -0.342280976657     0.459963414887    12.000000000000
           H          4.056540797036     0.264747023343    -0.420539585113     1.007825032070
           H          4.579292797036    -1.182332976657     0.458270414887     1.007825032070
           H          4.059491797036     0.263460023343     1.340818414887     1.007825032070

  Charge       = 0
  Multiplicity = 1
  Basis Set: 6-31G*
  Basis Set:

    Orbital Energies (a.u.)
    -----------------------

    Doubly Occupied:

       1A    -20.604286     2A    -20.546310     3A    -11.372911
       4A    -11.281188     5A    -11.234150     6A    -11.216641
       7A    -11.215139     8A    -11.214867     9A    -11.208573
      10A     -1.470007    11A     -1.363793    12A     -1.092042
      13A     -1.042719    14A     -0.986686    15A     -0.931225
      16A     -0.843024    17A     -0.794876    18A     -0.766907
      19A     -0.701609    20A     -0.681783    21A     -0.672686
      22A     -0.645703    23A     -0.611423    24A     -0.599977
      25A     -0.570522    26A     -0.556848    27A     -0.555786
      28A     -0.527348    29A     -0.523455    30A     -0.501823
      31A     -0.484305    32A     -0.468714    33A     -0.462456
      34A     -0.457688    35A     -0.455815    36A     -0.437785

  @DF-RHF Final Energy:  -422.97191382234496

   => Energetics <=

    Nuclear Repulsion Energy =            454.4428341355743441
    One-Electron Energy =               -1476.6275406182378447
    Two-Electron Energy =                 599.2127926603177457
    DFT Exchange-Correlation Energy =       0.0000000000000000
    Empirical Dispersion Energy =           0.0000000000000000
    PCM Polarization Energy =               0.0000000000000000
    EFP Energy =                            0.0000000000000000
    Total Energy =                       -422.9719138223457549

  Mulliken Charges: (a.u.)
   Center  Symbol    Alpha    Beta     Spin     Total
       1     O     4.28467  4.28467  0.00000 -0.56933
       2     C     2.61077  2.61077  0.00000  0.77847
       3     C     3.21035  3.21035  0.00000 -0.42071
       4     O     4.30585  4.30585  0.00000 -0.61171
       5     C     3.16134  3.16134  0.00000 -0.32268
       6     H     0.39807  0.39807  0.00000  0.20387
       7     H     0.39785  0.39785  0.00000  0.20431
       8     C     3.15556  3.15556  0.00000 -0.31111
       9     H     0.39394  0.39394  0.00000  0.21212
      10     H     0.41851  0.41851  0.00000  0.16299
      11     C     3.15233  3.15233  0.00000 -0.30465
      12     H     0.42258  0.42258  0.00000  0.15485
      13     H     0.42454  0.42454  0.00000  0.15092
      14     C     3.23948  3.23948  0.00000 -0.47897
      15     H     0.42016  0.42016  0.00000  0.15968
      16     H     0.42265  0.42265  0.00000  0.15469
      17     H     0.42160  0.42160  0.00000  0.15680
      18     H     0.41882  0.41882  0.00000  0.16237
      19     H     0.42223  0.42223  0.00000  0.15554
      20     C     3.09226  3.09226  0.00000 -0.18452
      21     H     0.40905  0.40905  0.00000  0.18190
      22     H     0.40839  0.40839  0.00000  0.18323
      23     H     0.40901  0.40901  0.00000  0.18197

   Total alpha = 36.00000, Total beta = 36.00000, Total charge =  0.00000
