  ==> Input File <==

--------------------------------------------------------------------------
set {
	reference rhf
	basis cc-pvtz
}

set_num_threads( 4 )
memory 2 gb

molecule MOL {
0 1

H	 2.646708	 0.758099	 0.000000
O	 2.258158	 -0.097743	 0.000000
C	 0.911162	 -0.015915	 0.000000
C	 0.336374	 1.084661	 0.614126
C	 0.110876	 -0.979964	 -0.583586
H	 0.972668	 1.822491	 1.061604
C	 -1.035716	 1.210539	 0.638633
H	 0.556807	 -1.834137	 -1.060225
C	 -1.265341	 -0.840502	 -0.551395
H	 -1.475616	 2.065549	 1.115965
C	 -1.848159	 0.251162	 0.057313
H	 -1.879506	 -1.593841	 -1.007037
H	 -2.915104	 0.356004	 0.080380

	symmetry c1
}
set optking {
	frozen_dihedral = ("
		4 3 2 1
	")
}

ee = optimize('scf')
oeprop('DIPOLE', 'QUADRUPOLE', 'MULLIKEN_CHARGES')
f=open( 'psi4out.xyz', 'w' )
f.write( "13  " )
f.write( str(ee) + "\n" )
f.write( MOL.save_string_xyz() )
f.close()
--------------------------------------------------------------------------

    Molecular point group: c1
  Charge       = 0
  Multiplicity = 1
  Basis Set: CC-PVTZ
  Basis Set:
  @DF-RHF Final Energy:  -305.66763875354508
    Total Energy =                       -305.6676387535451340
    Molecular point group: c1
  Basis Set: CC-PVTZ
  Basis Set:
  Basis Set: CC-PVTZ
  Basis Set:
  @DF-RHF Final Energy:  -305.66930563324354
    Total Energy =                       -305.6693056332433116
  Basis Set: CC-PVTZ
  Basis Set:
  Basis Set: CC-PVTZ
  Basis Set:
  @DF-RHF Final Energy:  -305.66943436104680
    Total Energy =                       -305.6694343610467968
  Basis Set: CC-PVTZ
  Basis Set:
  Basis Set: CC-PVTZ
  Basis Set:
  @DF-RHF Final Energy:  -305.66945054012359
    Total Energy =                       -305.6694505401233073
  Basis Set: CC-PVTZ
  Basis Set:
  Basis Set: CC-PVTZ
  Basis Set:
  @DF-RHF Final Energy:  -305.66945437529984
    Total Energy =                       -305.6694543753000630
  Basis Set: CC-PVTZ
  Basis Set:
  Charge       = 0
  Multiplicity = 1
  Basis Set: CC-PVTZ
  Basis Set:

    Orbital Energies (a.u.)
    -----------------------

    Doubly Occupied:

       1A    -20.581678     2A    -11.295566     3A    -11.234918
       4A    -11.233284     5A    -11.226216     6A    -11.221292
       7A    -11.220853     8A     -1.411409     9A     -1.152792
      10A     -1.022638    11A     -1.008394    12A     -0.848639
      13A     -0.826979    14A     -0.740902    15A     -0.687459
      16A     -0.653907    17A     -0.618375    18A     -0.598836
      19A     -0.591759    20A     -0.554344    21A     -0.517422
      22A     -0.494760    23A     -0.482495    24A     -0.342854
      25A     -0.317755

  @DF-RHF Final Energy:  -305.66945474984703

   => Energetics <=

    Nuclear Repulsion Energy =            273.7124873799176044
    One-Electron Energy =                -956.9928376536045107
    Two-Electron Energy =                 377.6108955238398721
    DFT Exchange-Correlation Energy =       0.0000000000000000
    Empirical Dispersion Energy =           0.0000000000000000
    PCM Polarization Energy =               0.0000000000000000
    EFP Energy =                            0.0000000000000000
    Total Energy =                       -305.6694547498470911
    Molecular point group: c1
  Basis Set: CC-PVTZ
  Basis Set:

  -Total Gradient:
     Atom            X                  Y                   Z
    ------   -----------------  -----------------  -----------------
       1       -0.000023721210     0.000046336879    -0.002275685588
       2        0.000056236978    -0.000528220395     0.003641534661
       3        0.000096810878     0.001353745253    -0.002860073881
       4       -0.000061196449    -0.000851299926     0.001473868778
       5       -0.000054930641    -0.000018181033     0.000020575929
       6       -0.000009222644    -0.000004701890    -0.000003168020
       7       -0.000001780629    -0.000000073051     0.000033117007
       8        0.000013719604     0.000009609962     0.000002781235
       9       -0.000009571564     0.000005709467     0.000001295345
      10       -0.000015991375     0.000001169730    -0.000007587107
      11        0.000008005949    -0.000026968281    -0.000028569155
      12        0.000000177126     0.000000891931    -0.000004260138
      13        0.000001463978     0.000011981356     0.000006170933

  **** Optimization is complete! (in 6 steps) ****
    Final optimized geometry and variables:
    Molecular point group: c1

    Geometry (in Angstrom), charge = 0, multiplicity = 1:

    H            2.694874438740     0.580019503294    -0.037087917980
    O            2.249050672372    -0.247541835343    -0.050981806576
    C            0.906676725909    -0.073177816783    -0.026663249884
    C            0.320071768890     1.013460333559     0.595627605367
    C            0.117432168139    -1.051236427452    -0.604858349271
    H            0.935577586891     1.760806337881     1.061800347695
    C           -1.057596108341     1.128639940319     0.618884085237
    H            0.590053667387    -1.890247186728    -1.076307370727
    C           -1.256352243771    -0.930519291057    -0.565087254379
    H           -1.506254240954     1.977569441931     1.098834769559
    C           -1.853983958480     0.159938161420     0.041882493324
    H           -1.864021255495    -1.691929981889    -1.016031904011
    H           -2.922369349052     0.250214737801     0.066056655632

  Mulliken Charges: (a.u.)
   Center  Symbol    Alpha    Beta     Spin     Total
       1     H     0.38628  0.38628  0.00000  0.22744
       2     O     4.17975  4.17975  0.00000 -0.35949
       3     C     2.85775  2.85775  0.00000  0.28451
       4     C     3.12872  3.12872  0.00000 -0.25745
       5     C     3.10999  3.10999  0.00000 -0.21997
       6     H     0.43046  0.43046  0.00000  0.13907
       7     C     3.06577  3.06577  0.00000 -0.13154
       8     H     0.41840  0.41840  0.00000  0.16320
       9     C     3.05872  3.05872  0.00000 -0.11744
      10     H     0.42232  0.42232  0.00000  0.15535
      11     C     3.09579  3.09579  0.00000 -0.19158
      12     H     0.42230  0.42230  0.00000  0.15541
      13     H     0.42375  0.42375  0.00000  0.15249

   Total alpha = 25.00000, Total beta = 25.00000, Total charge = -0.00000
