                              Psi4 1.0.54 Driver

  ==> Input File <==

--------------------------------------------------------------------------
set {
	reference rhf
	basis cc-pvtz
}

set_num_threads( 4 )
memory 2 gb

molecule MOL {
0 1

H	 -2.816458	 -0.841657	 -0.064679
N	 -1.878861	 -0.711874	 0.250184
C	 -1.341419	 0.551458	 -0.220231
H	 -1.333674	 -1.468530	 -0.105118
C	 0.082190	 0.731516	 0.254705
H	 -1.357065	 0.652078	 -1.304747
H	 -1.939897	 1.357530	 0.189797
O	 0.881195	 -0.248324	 -0.336237
H	 0.440901	 1.722476	 -0.020063
H	 0.119896	 0.643586	 1.338114
C	 1.686840	 -0.948126	 0.552826
H	 2.256941	 -1.670656	 -0.013144
H	 2.377965	 -0.285451	 1.069452
H	 1.094066	 -1.474628	 1.297122

	symmetry c1
}
set optking {
	frozen_dihedral = ("
		11 8 5 3
	")
}

ee,wfn = optimize('scf', return_wfn=True)
oeprop( wfn, 'DIPOLE', 'QUADRUPOLE', 'MULLIKEN_CHARGES')
f=open( 'psi4out.xyz', 'w' )
f.write( "14  " )
f.write( str(ee) + "\n" )
f.write( MOL.save_string_xyz() )
f.close()
--------------------------------------------------------------------------

    Molecular point group: c1
  Charge       = 0
  Multiplicity = 1
  Basis Set: CC-PVTZ
  Basis Set:
  @DF-RHF Final Energy:  -248.22258074617775
    Total Energy =                       -248.2225807461777549
    Molecular point group: c1
  Basis Set: CC-PVTZ
  Basis Set:
  Basis Set: CC-PVTZ
  Basis Set:
  @DF-RHF Final Energy:  -248.22294666545235
    Total Energy =                       -248.2229466654523549
  Basis Set: CC-PVTZ
  Basis Set:
  Basis Set: CC-PVTZ
  Basis Set:
  @DF-RHF Final Energy:  -248.22302876641700
    Total Energy =                       -248.2230287664168600
  Basis Set: CC-PVTZ
  Basis Set:
  Basis Set: CC-PVTZ
  Basis Set:
  @DF-RHF Final Energy:  -248.22303324702710
    Total Energy =                       -248.2230332470269332
  Basis Set: CC-PVTZ
  Basis Set:
  Charge       = 0
  Multiplicity = 1
  Basis Set: CC-PVTZ
  Basis Set:

    Orbital Energies (a.u.)
    -----------------------

    Doubly Occupied:

       1A    -20.546458     2A    -15.526826     3A    -11.262700
       4A    -11.261682     5A    -11.239900     6A     -1.378406
       7A     -1.177941     8A     -1.000207     9A     -0.907450
      10A     -0.814490    11A     -0.686885    12A     -0.670474
      13A     -0.644944    14A     -0.617037    15A     -0.602746
      16A     -0.540382    17A     -0.531426    18A     -0.502898
      19A     -0.471857    20A     -0.416200    21A     -0.384596

  @DF-RHF Final Energy:  -248.22303364680135

   => Energetics <=

    Nuclear Repulsion Energy =            195.9690718026691911
    One-Electron Energy =                -726.0132020130661203
    Two-Electron Energy =                 281.8210965635955176
    DFT Exchange-Correlation Energy =       0.0000000000000000
    Empirical Dispersion Energy =           0.0000000000000000
    PCM Polarization Energy =               0.0000000000000000
    EFP Energy =                            0.0000000000000000
    Total Energy =                       -248.2230336468014116
    Molecular point group: c1
  Basis Set: CC-PVTZ
  Basis Set:

  -Total Gradient:
     Atom            X                  Y                   Z
    ------   -----------------  -----------------  -----------------
       1       -0.000026698897     0.000010570289    -0.000004821462
       2        0.000006305077     0.000012309181     0.000001401873
       3       -0.000256309469    -0.000876616262     0.001131304186
       4        0.000020709190     0.000006680705     0.000002476605
       5       -0.000128378231     0.000690634742    -0.001489130092
       6       -0.000011593115    -0.000013309745     0.000018621473
       7       -0.000010723572     0.000000660555     0.000012546203
       8        0.001661896306     0.001293341503     0.000087950607
       9       -0.000015019267     0.000005016001    -0.000006589009
      10       -0.000007582237    -0.000016625456    -0.000000123152
      11       -0.001243789212    -0.001111459179     0.000238959903
      12       -0.000003947000     0.000002242653     0.000005125353
      13        0.000008480079    -0.000002929469     0.000005582850
      14        0.000006650345    -0.000000515516    -0.000003305338

  **** Optimization is complete! (in 5 steps) ****
    Final optimized geometry and variables:
    Molecular point group: c1

    Geometry (in Angstrom), charge = 0, multiplicity = 1:

    H           -2.744209626498    -0.621346055911    -0.116158201211
    N           -1.779934713051    -0.541214975680     0.126562536328
    C           -1.233868592135     0.726760317075    -0.322995990202
    H           -1.298525567403    -1.294829911236    -0.316707406960
    C            0.196606949728     0.882852958437     0.146951225548
    H           -1.261763115881     0.846698621750    -1.405324747943
    H           -1.821628864747     1.531059703967     0.106476424112
    O            0.997858149304    -0.117589597388    -0.418920681885
    H            0.580485721549     1.856442746058    -0.144380226405
    H            0.219617156670     0.819729205020     1.229918263634
    C            1.804534967537    -0.826493489320     0.466278512548
    H            2.344520266481    -1.567780674537    -0.105710496152
    H            2.525686329588    -0.178854403174     0.959473848488
    H            1.214329064982    -1.329529679145     1.226720042213

  Mulliken Charges: (a.u.)
   Center  Symbol    Alpha    Beta     Spin     Total
       1     H     0.42963  0.42963  0.00000  0.14075
       2     N     3.69614  3.69614  0.00000 -0.39227
       3     C     3.02444  3.02444  0.00000 -0.04889
       4     H     0.42250  0.42250  0.00000  0.15500
       5     C     2.97100  2.97100  0.00000  0.05800
       6     H     0.46482  0.46482  0.00000  0.07036
       7     H     0.45818  0.45818  0.00000  0.08363
       8     O     4.18899  4.18899  0.00000 -0.37799
       9     H     0.45820  0.45820  0.00000  0.08359
      10     H     0.46806  0.46806  0.00000  0.06389
      11     C     3.03573  3.03573  0.00000 -0.07146
      12     H     0.44989  0.44989  0.00000  0.10022
      13     H     0.46655  0.46655  0.00000  0.06691
      14     H     0.46587  0.46587  0.00000  0.06826

   Total alpha = 21.00000, Total beta = 21.00000, Total charge = -0.00000

*** Psi4 exiting successfully. Buy a developer a beer!
