  ==> Input File <==

--------------------------------------------------------------------------
set {
	reference rhf
	basis 6-31G*
}

set_num_threads( 4 )
memory 2 gb

molecule MOL {
0 1

H	 2.866480	 -0.465706	 0.876907
C	 2.405773	 -0.024801	 0.000000
N	 0.988830	 -0.304158	 0.000000
H	 2.866480	 -0.465706	 -0.876907
H	 2.629928	 1.045948	 0.000000
C	 0.701509	 -1.707420	 -0.232960
C	 0.260354	 0.530189	 -0.937633
H	 1.066855	 -2.036233	 -1.211174
H	 1.203103	 -2.302596	 0.523621
C	 -0.797696	 -1.944468	 -0.154330
H	 0.438914	 1.573491	 -0.697046
H	 0.593553	 0.364429	 -1.967197
C	 -1.227152	 0.233802	 -0.840316
H	 -1.037896	 -2.967368	 -0.413163
H	 -1.144860	 -1.752019	 0.859283
O	 -1.482252	 -1.125121	 -1.059872
H	 -1.777116	 0.782071	 -1.593946
H	 -1.594521	 0.528735	 0.141022

	symmetry c1
}
set optking {
	frozen_dihedral = ("
		6 3 2 5
	")
}

ee = optimize('scf')
oeprop('DIPOLE', 'QUADRUPOLE', 'MULLIKEN_CHARGES')
f=open( 'psi4out.xyz', 'w' )
f.write( "18  " )
f.write( str(ee) + "\n" )
f.write( MOL.save_string_xyz() )
f.close()
--------------------------------------------------------------------------

    Molecular point group: c1
  Charge       = 0
  Multiplicity = 1
  Basis Set: 6-31G*
  Basis Set:
  @DF-RHF Final Energy:  -325.02711251344198
    Total Energy =                       -325.0271125134420345
    Molecular point group: c1
  Basis Set: 6-31G*
  Basis Set:
  Basis Set: 6-31G*
  Basis Set:
  @DF-RHF Final Energy:  -325.02783965461578
    Total Energy =                       -325.0278396546159456
  Basis Set: 6-31G*
  Basis Set:
  Basis Set: 6-31G*
  Basis Set:
  @DF-RHF Final Energy:  -325.02795664991555
    Total Energy =                       -325.0279566499153816
  Basis Set: 6-31G*
  Basis Set:
  Basis Set: 6-31G*
  Basis Set:
  @DF-RHF Final Energy:  -325.02795822541935
    Total Energy =                       -325.0279582254187289
  Basis Set: 6-31G*
  Basis Set:
  Charge       = 0
  Multiplicity = 1
  Basis Set: 6-31G*
  Basis Set:

    Orbital Energies (a.u.)
    -----------------------

    Doubly Occupied:

       1A    -20.554021     2A    -15.549802     3A    -11.266282
       4A    -11.266263     5A    -11.244250     6A    -11.244059
       7A    -11.241181     8A     -1.383488     9A     -1.232363
      10A     -1.038378    11A     -0.981190    12A     -0.882691
      13A     -0.869112    14A     -0.775224    15A     -0.683587
      16A     -0.645177    17A     -0.643407    18A     -0.634133
      19A     -0.628962    20A     -0.571770    21A     -0.557752
      22A     -0.540094    23A     -0.527598    24A     -0.501874
      25A     -0.483749    26A     -0.452310    27A     -0.407837
      28A     -0.354489

  @DF-RHF Final Energy:  -325.02795860409356

   => Energetics <=

    Nuclear Repulsion Energy =            341.5141543177701351
    One-Electron Energy =               -1118.7621351680199950
    Two-Electron Energy =                 452.2200222461558496
    DFT Exchange-Correlation Energy =       0.0000000000000000
    Empirical Dispersion Energy =           0.0000000000000000
    PCM Polarization Energy =               0.0000000000000000
    EFP Energy =                            0.0000000000000000
    Total Energy =                       -325.0279586040940103
    Molecular point group: c1
  Basis Set: 6-31G*
  Basis Set:

  -Total Gradient:
     Atom            X                  Y                   Z
    ------   -----------------  -----------------  -----------------
       1       -0.000014836003    -0.000000553224    -0.000007073881
       2       -0.000020730167     0.000125834752     0.002971737767
       3        0.000121379689    -0.000565861753     0.002332640188
       4        0.000005494751    -0.000004513766     0.000000937520
       5       -0.000022694706     0.000025964790    -0.003052364183
       6       -0.000080742522     0.000431288628    -0.002250117344
       7        0.000015780772    -0.000016104901     0.000017625740
       8       -0.000003229161    -0.000001194515    -0.000000661700
       9        0.000005214391     0.000000194296    -0.000000698929
      10       -0.000000699914    -0.000005052690    -0.000017637648
      11       -0.000002600844    -0.000000539396    -0.000002152202
      12        0.000005631654    -0.000001226274    -0.000002948388
      13       -0.000010067936     0.000013332518     0.000013506088
      14       -0.000000178782    -0.000004732211     0.000002264876
      15        0.000002230070     0.000003554813    -0.000004566973
      16       -0.000000462232    -0.000000929816     0.000000660416
      17        0.000002290378    -0.000001356619    -0.000001244155
      18       -0.000001779437     0.000001895370     0.000000092806

  **** Optimization is complete! (in 5 steps) ****
    Final optimized geometry and variables:
    Molecular point group: c1

    Geometry (in Angstrom), charge = 0, multiplicity = 1:

    H            2.754965745584     0.151907518378     1.342669632519
    C            2.287601053313     0.586429325519     0.466021150851
    N            0.865802914773     0.321263660324     0.475037498281
    H            2.784571086419     0.182805391684    -0.421022993053
    H            2.462296270858     1.655928638998     0.471209158713
    C            0.575507405120    -1.080835193620     0.234721611287
    C            0.140532347514     1.150076513635    -0.472421331015
    H            0.939548550536    -1.401083903248    -0.746449487703
    H            1.079896546805    -1.681598687061     0.985500666402
    C           -0.923038106313    -1.320031501414     0.314739553815
    H            0.318908574969     2.194744252372    -0.239010395095
    H            0.473812097934     0.976000840477    -1.500483891911
    C           -1.347896139931     0.858135113542    -0.374426907961
    H           -1.162225841163    -2.343108524035     0.055460231821
    H           -1.269737980450    -1.128457763577     1.328542433566
    O           -1.608410565521    -0.500402316517    -0.589910676080
    H           -1.896326008296     1.406878982906    -1.128897691971
    H           -1.713046616603     1.156744434931     0.606558397226

  Mulliken Charges: (a.u.)
   Center  Symbol    Alpha    Beta     Spin     Total
       1     H     0.41447  0.41447  0.00000  0.17106
       2     C     3.14051  3.14051  0.00000 -0.28103
       3     N     3.78662  3.78662  0.00000 -0.57323
       4     H     0.43212  0.43212  0.00000  0.13576
       5     H     0.41695  0.41695  0.00000  0.16610
       6     C     3.06964  3.06964  0.00000 -0.13927
       7     C     3.06962  3.06962  0.00000 -0.13924
       8     H     0.42776  0.42776  0.00000  0.14449
       9     H     0.41661  0.41661  0.00000  0.16679
      10     C     2.99732  2.99732  0.00000  0.00537
      11     H     0.41653  0.41653  0.00000  0.16695
      12     H     0.42824  0.42824  0.00000  0.14351
      13     C     2.99755  2.99755  0.00000  0.00490
      14     H     0.41324  0.41324  0.00000  0.17351
      15     H     0.42377  0.42377  0.00000  0.15247
      16     O     4.31201  4.31201  0.00000 -0.62401
      17     H     0.41326  0.41326  0.00000  0.17348
      18     H     0.42379  0.42379  0.00000  0.15242

   Total alpha = 28.00000, Total beta = 28.00000, Total charge =  0.00000
