  ==> Input File <==

--------------------------------------------------------------------------
set {
	reference rhf
	basis 6-31G*
}

set_num_threads( 4 )
memory 2 gb

molecule MOL {
0 1

H	 1.159212	 -1.054145	 0.743314
O	 1.318910	 -0.614878	 -0.080940
C	 0.707850	 0.642029	 -0.053494
C	 -0.793441	 0.596080	 0.058728
H	 0.989039	 1.135197	 -0.977031
H	 1.108174	 1.249323	 0.757653
C	 -1.530462	 -0.493172	 -0.025500
H	 -1.267442	 1.552467	 0.217251
H	 -1.092586	 -1.461565	 -0.186463
H	 -2.602122	 -0.450675	 0.050101

	symmetry c1
}
set optking {
	frozen_dihedral = ("
		3 4 7 9
	")
}

ee = optimize('scf')
oeprop('DIPOLE', 'QUADRUPOLE', 'MULLIKEN_CHARGES')
f=open( 'psi4out.xyz', 'w' )
f.write( "10  " )
f.write( str(ee) + "\n" )
f.write( MOL.save_string_xyz() )
f.close()
--------------------------------------------------------------------------

    Molecular point group: c1
  Charge       = 0
  Multiplicity = 1
  Basis Set: 6-31G*
  Basis Set:
  @DF-RHF Final Energy:  -191.91722764765956
    Total Energy =                       -191.9172276476596153
    Molecular point group: c1
  Basis Set: 6-31G*
  Basis Set:
  Basis Set: 6-31G*
  Basis Set:
  @DF-RHF Final Energy:  -191.91723808389179
    Total Energy =                       -191.9172380838917888
  Basis Set: 6-31G*
  Basis Set:
  Basis Set: 6-31G*
  Basis Set:
  @DF-RHF Final Energy:  -191.91724111337089
    Total Energy =                       -191.9172411133708636
  Basis Set: 6-31G*
  Basis Set:
  Charge       = 0
  Multiplicity = 1
  Basis Set: 6-31G*
  Basis Set:

    Orbital Energies (a.u.)
    -----------------------

    Doubly Occupied:

       1A    -20.560622     2A    -11.278370     3A    -11.231029
       4A    -11.219396     5A     -1.369266     6A     -1.057898
       7A     -0.928465     8A     -0.768821     9A     -0.687778
      10A     -0.661560    11A     -0.615831    12A     -0.570738
      13A     -0.538151    14A     -0.492014    15A     -0.447814
      16A     -0.364757

  @DF-RHF Final Energy:  -191.91724114661235

   => Energetics <=

    Nuclear Repulsion Energy =            119.3829622554766274
    One-Electron Energy =                -497.0153882107945265
    Two-Electron Energy =                 185.7151848087055441
    DFT Exchange-Correlation Energy =       0.0000000000000000
    Empirical Dispersion Energy =           0.0000000000000000
    PCM Polarization Energy =               0.0000000000000000
    EFP Energy =                            0.0000000000000000
    Total Energy =                       -191.9172411466123549
    Molecular point group: c1
  Basis Set: 6-31G*
  Basis Set:

  -Total Gradient:
     Atom            X                  Y                   Z
    ------   -----------------  -----------------  -----------------
       1        0.000002055224     0.000004812684     0.000001073731
       2        0.000016538792     0.000004874963    -0.000000372738
       3       -0.000037222948     0.000038536789    -0.000390444857
       4        0.000061706275    -0.000107197934     0.000865824561
       5        0.000000406927    -0.000001538745     0.000002689364
       6        0.000006969114    -0.000003224669     0.000000262271
       7       -0.000087813484     0.000137129496    -0.001027001799
       8       -0.000002726637    -0.000001136827     0.000008516899
       9        0.000038220804    -0.000070747620     0.000535231154
      10        0.000001865932    -0.000001508135     0.000004221414

  **** Optimization is complete! (in 4 steps) ****
    Final optimized geometry and variables:
    Molecular point group: c1

    Geometry (in Angstrom), charge = 0, multiplicity = 1:

    H            1.162248113510    -1.053246410730     0.763570865687
    O            1.319304215257    -0.616556247907    -0.062565137810
    C            0.708204464278     0.640294469996    -0.037150431523
    C           -0.793006389001     0.594387180158     0.076120998173
    H            0.987670689620     1.130904226394    -0.962568711917
    H            1.110288814337     1.249658677841     0.771675821800
    C           -1.530756582802    -0.493865057180    -0.014075604889
    H           -1.266965912975     1.551108555763     0.232532287105
    H           -1.093811485543    -1.461554437549    -0.181319586152
    H           -2.601567132967    -0.452451792171     0.072643418140

  Mulliken Charges: (a.u.)
   Center  Symbol    Alpha    Beta     Spin     Total
       1     H     0.28088  0.28088  0.00000  0.43824
       2     O     4.36677  4.36677  0.00000 -0.73355
       3     C     3.00033  3.00033  0.00000 -0.00066
       4     C     3.09395  3.09395  0.00000 -0.18791
       5     H     0.40810  0.40810  0.00000  0.18379
       6     H     0.42576  0.42576  0.00000  0.14848
       7     C     3.19676  3.19676  0.00000 -0.39351
       8     H     0.41023  0.41023  0.00000  0.17954
       9     H     0.40619  0.40619  0.00000  0.18762
      10     H     0.41102  0.41102  0.00000  0.17795

   Total alpha = 16.00000, Total beta = 16.00000, Total charge =  0.00000
