  ==> Input File <==

--------------------------------------------------------------------------
set {
	reference rhf
	basis 6-31G*
}

set_num_threads( 4 )
memory 2 gb

molecule MOL {
0 1

H	 -2.698709	 -0.000305	 0.034435
C	 -1.693833	 0.000034	 0.434417
O	 -0.828952	 -0.000968	 -0.659236
H	 -1.574200	 0.882896	 1.055746
H	 -1.574147	 -0.881698	 1.057355
C	 0.559449	 -0.000782	 -0.420813
C	 1.031629	 1.267973	 0.286451
C	 1.032290	 -1.269600	 0.285928
H	 0.980758	 -0.000469	 -1.419077
H	 0.636275	 2.146154	 -0.212589
H	 2.115480	 1.323186	 0.265138
H	 0.724132	 1.297137	 1.327009
H	 0.636820	 -2.147740	 -0.213001
H	 2.116238	 -1.324663	 0.263822
H	 0.725606	 -1.299016	 1.326562

	symmetry c1
}
set optking {
	frozen_dihedral = ("
		6 3 2 1
	")
}

ee = optimize('scf')
oeprop('DIPOLE', 'QUADRUPOLE', 'MULLIKEN_CHARGES')
f=open( 'psi4out.xyz', 'w' )
f.write( "15  " )
f.write( str(ee) + "\n" )
f.write( MOL.save_string_xyz() )
f.close()
--------------------------------------------------------------------------

    Molecular point group: c1
  Charge       = 0
  Multiplicity = 1
  Basis Set: 6-31G*
  Basis Set:
  @DF-RHF Final Energy:  -232.13777399039682
    Total Energy =                       -232.1377739903966813
    Molecular point group: c1
  Basis Set: 6-31G*
  Basis Set:
  Charge       = 0
  Multiplicity = 1
  Basis Set: 6-31G*
  Basis Set:

    Orbital Energies (a.u.)
    -----------------------

    Doubly Occupied:

       1A    -20.548481     2A    -11.274309     3A    -11.260997
       4A    -11.210551     5A    -11.210527     6A     -1.370505
       7A     -1.050504     8A     -0.939555     9A     -0.931328
      10A     -0.781259    11A     -0.674148    12A     -0.640298
      13A     -0.633563    14A     -0.572862    15A     -0.565650
      16A     -0.552706    17A     -0.533862    18A     -0.497193
      19A     -0.496860    20A     -0.443098    21A     -0.406758

  @DF-RHF Final Energy:  -232.13777372366931

   => Energetics <=

    Nuclear Repulsion Energy =            198.7652207997434459
    One-Electron Energy =                -708.6159633006980130
    Two-Electron Energy =                 277.7129687772853117
    DFT Exchange-Correlation Energy =       0.0000000000000000
    Empirical Dispersion Energy =           0.0000000000000000
    PCM Polarization Energy =               0.0000000000000000
    EFP Energy =                            0.0000000000000000
    Total Energy =                       -232.1377737236692269
    Molecular point group: c1
  Basis Set: 6-31G*
  Basis Set:

  -Total Gradient:
     Atom            X                  Y                   Z
    ------   -----------------  -----------------  -----------------
       1       -0.000001800669     0.000003967406    -0.000001014483
       2        0.000026378141    -0.000007448488    -0.000018033828
       3       -0.000038477670    -0.000015105334    -0.000003581011
       4        0.000001440843     0.000000596355    -0.000004749935
       5        0.000024982534    -0.000022176143     0.000019219671
       6       -0.000030584031     0.000037117144     0.000006846371
       7        0.000042676397     0.000003493061    -0.000006927715
       8       -0.000018101310    -0.000008027765     0.000007146083
       9       -0.000022629863    -0.000000722026    -0.000000711559
      10        0.000015875960    -0.000001204249    -0.000011949170
      11        0.000009980887     0.000005814802     0.000015123709
      12       -0.000005093707     0.000000680755    -0.000006477280
      13        0.000021957650     0.000006904237    -0.000022587062
      14        0.000008216580     0.000004862300     0.000013236660
      15       -0.000034821740    -0.000008752053     0.000014459550

  **** Optimization is complete! (in 2 steps) ****
    Final optimized geometry and variables:
    Molecular point group: c1

    Geometry (in Angstrom), charge = 0, multiplicity = 1:

    H           -2.698768739763    -0.000151217150     0.036207694207
    C           -1.693587339732    -0.000758227437     0.435534880881
    O           -0.829485857407     0.000566199060    -0.658745550532
    H           -1.573404467072     0.880794257025     1.058619416016
    H           -1.573491577253    -0.883879836607     1.056438651148
    C            0.559036120633     0.000131344258    -0.421068364509
    C            1.032935217714     1.268926742950     0.285160058423
    C            1.031571217350    -1.268784716655     0.285822958495
    H            0.979714805980    -0.000316798424    -1.419551442871
    H            0.640970915496     2.147236497000    -0.216207656428
    H            2.117081478100     1.321378503870     0.266141511265
    H            0.723347993543     1.300603041511     1.324934371434
    H            0.640384896368    -2.146972048639    -0.216368512779
    H            2.115742508970    -1.321338815477     0.268645716311
    H            0.720147245737    -1.300566465219     1.325062882665

  Mulliken Charges: (a.u.)
   Center  Symbol    Alpha    Beta     Spin     Total
       1     H     0.41258  0.41258  0.00000  0.17484
       2     C     3.08202  3.08202  0.00000 -0.16404
       3     O     4.31177  4.31177  0.00000 -0.62354
       4     H     0.42930  0.42930  0.00000  0.14139
       5     H     0.42929  0.42929  0.00000  0.14143
       6     C     2.90868  2.90868  0.00000  0.18264
       7     C     3.25343  3.25343  0.00000 -0.50686
       8     C     3.25346  3.25346  0.00000 -0.50693
       9     H     0.41513  0.41513  0.00000  0.16974
      10     H     0.41144  0.41144  0.00000  0.17711
      11     H     0.41935  0.41935  0.00000  0.16131
      12     H     0.42139  0.42139  0.00000  0.15722
      13     H     0.41146  0.41146  0.00000  0.17709
      14     H     0.41934  0.41934  0.00000  0.16132
      15     H     0.42137  0.42137  0.00000  0.15726

   Total alpha = 21.00000, Total beta = 21.00000, Total charge =  0.00000
