                              Psi4 1.0.54 Driver

  ==> Input File <==

--------------------------------------------------------------------------
set {
	reference rhf
	basis cc-pvtz
}

set_num_threads( 4 )
memory 2 gb

molecule MOL {
0 1

H	 2.649664	 -0.195883	 0.620733
O	 2.063695	 -0.083403	 -0.105237
C	 0.742924	 0.005675	 0.350750
H	 0.731380	 0.039219	 1.440080
C	 -0.064076	 -1.193495	 -0.124425
C	 -0.047832	 1.190568	 -0.194462
H	 0.194729	 -1.376165	 -1.161308
H	 0.163013	 -2.094508	 0.429933
C	 -1.533112	 -0.752002	 0.006102
H	 0.148003	 1.266545	 -1.259275
H	 0.226235	 2.136493	 0.259722
C	 -1.506634	 0.799189	 0.067162
H	 -2.124360	 -1.110499	 -0.826089
H	 -1.983103	 -1.158030	 0.903403
H	 -2.183808	 1.252169	 -0.644677
H	 -1.813926	 1.138698	 1.049457

	symmetry c1
}
set optking {
	frozen_dihedral = ("
		1 2 3 6
	")
}

ee,wfn = optimize('scf', return_wfn=True)
oeprop( wfn, 'DIPOLE', 'QUADRUPOLE', 'MULLIKEN_CHARGES')
f=open( 'psi4out.xyz', 'w' )
f.write( "16  " )
f.write( str(ee) + "\n" )
f.write( MOL.save_string_xyz() )
f.close()
--------------------------------------------------------------------------

    Molecular point group: c1
  Charge       = 0
  Multiplicity = 1
  Basis Set: CC-PVTZ
  Basis Set:
  @DF-RHF Final Energy:  -270.11485055321498
    Total Energy =                       -270.1148505532150921
    Molecular point group: c1
  Basis Set: CC-PVTZ
  Basis Set:
  Basis Set: CC-PVTZ
  Basis Set:
  @DF-RHF Final Energy:  -270.11546653699259
    Total Energy =                       -270.1154665369926988
  Basis Set: CC-PVTZ
  Basis Set:
  Basis Set: CC-PVTZ
  Basis Set:
  @DF-RHF Final Energy:  -270.11551517444207
    Total Energy =                       -270.1155151744419527
  Basis Set: CC-PVTZ
  Basis Set:
  Basis Set: CC-PVTZ
  Basis Set:
  @DF-RHF Final Energy:  -270.11551733441206
    Total Energy =                       -270.1155173344121181
  Basis Set: CC-PVTZ
  Basis Set:
  Charge       = 0
  Multiplicity = 1
  Basis Set: CC-PVTZ
  Basis Set:

    Orbital Energies (a.u.)
    -----------------------

    Doubly Occupied:

       1A    -20.544963     2A    -11.268223     3A    -11.212676
       4A    -11.212129     5A    -11.206083     6A    -11.206013
       7A     -1.364560     8A     -1.113504     9A     -0.964275
      10A     -0.949204    11A     -0.780878    12A     -0.779398
      13A     -0.717689    14A     -0.653476    15A     -0.622098
      16A     -0.579535    17A     -0.550155    18A     -0.532135
      19A     -0.521833    20A     -0.479263    21A     -0.469243
      22A     -0.455972    23A     -0.452774    24A     -0.413267

  @DF-RHF Final Energy:  -270.11551778911405

   => Energetics <=

    Nuclear Repulsion Energy =            255.2974765182660519
    One-Electron Energy =                -872.7272994669259560
    Two-Electron Energy =                 347.3143051595458246
    DFT Exchange-Correlation Energy =       0.0000000000000000
    Empirical Dispersion Energy =           0.0000000000000000
    PCM Polarization Energy =               0.0000000000000000
    EFP Energy =                            0.0000000000000000
    Total Energy =                       -270.1155177891140511
    Molecular point group: c1
  Basis Set: CC-PVTZ
  Basis Set:

  -Total Gradient:
     Atom            X                  Y                   Z
    ------   -----------------  -----------------  -----------------
       1        0.000055960310     0.000580724843     0.000052867209
       2       -0.000032670995    -0.000656896275     0.000068153809
       3       -0.000153591161    -0.000115523995    -0.000407198394
       4        0.000012636503    -0.000006825105    -0.000007089637
       5        0.000059438845     0.000003432504    -0.000026984318
       6        0.000052147889     0.000243751022     0.000298771934
       7       -0.000010487832    -0.000019725466     0.000008948496
       8       -0.000012883268     0.000007461756     0.000005891713
       9       -0.000028755808     0.000008487757     0.000057941071
      10        0.000006437585    -0.000018191141     0.000008971912
      11        0.000021087810     0.000010790885     0.000002085388
      12        0.000033680952    -0.000008959349    -0.000045431391
      13        0.000007744221    -0.000003030385    -0.000023437084
      14       -0.000022302858    -0.000015456154    -0.000021250653
      15       -0.000008801593    -0.000013542681     0.000019054622
      16        0.000020359397     0.000003501784     0.000008705320

  **** Optimization is complete! (in 5 steps) ****
    Final optimized geometry and variables:
    Molecular point group: c1

    Geometry (in Angstrom), charge = 0, multiplicity = 1:

    H            2.672859573358    -0.154032618772     0.564653452342
    O            2.063682936571    -0.058855347426    -0.141502616151
    C            0.746646760784    -0.002007778935     0.341044118801
    H            0.755114570125     0.070289142848     1.426849981719
    C           -0.094583662745    -1.202597757650    -0.082201853412
    C           -0.025918086280     1.179522004810    -0.228982626338
    H            0.151001945135    -1.427214316685    -1.114031019550
    H            0.115926654399    -2.090830007590     0.500732929393
    C           -1.552222546671    -0.725658791798     0.044267440555
    H            0.169687765850     1.223076508310    -1.295478581370
    H            0.276910368325     2.127508655610     0.197762091700
    C           -1.491035527191     0.826425639010     0.046753688660
    H           -2.159073558584    -1.101859330456    -0.768740038917
    H           -2.003089950662    -1.087837533562     0.959906996949
    H           -2.160502765033     1.265222254939    -0.681034160806
    H           -1.790829244528     1.208606048148     1.015820953871

  Mulliken Charges: (a.u.)
   Center  Symbol    Alpha    Beta     Spin     Total
       1     H     0.39180  0.39180  0.00000  0.21641
       2     O     4.20426  4.20426  0.00000 -0.40852
       3     C     2.92110  2.92110  0.00000  0.15781
       4     H     0.47021  0.47021  0.00000  0.05957
       5     C     3.10088  3.10088  0.00000 -0.20175
       6     C     3.09506  3.09506  0.00000 -0.19013
       7     H     0.45231  0.45231  0.00000  0.09539
       8     H     0.44816  0.44816  0.00000  0.10367
       9     C     3.11220  3.11220  0.00000 -0.22440
      10     H     0.45322  0.45322  0.00000  0.09356
      11     H     0.44777  0.44777  0.00000  0.10445
      12     C     3.11335  3.11335  0.00000 -0.22670
      13     H     0.44537  0.44537  0.00000  0.10927
      14     H     0.44920  0.44920  0.00000  0.10160
      15     H     0.44380  0.44380  0.00000  0.11241
      16     H     0.45132  0.45132  0.00000  0.09736

   Total alpha = 24.00000, Total beta = 24.00000, Total charge =  0.00000

*** Psi4 exiting successfully. Buy a developer a beer!
