  ==> Input File <==

--------------------------------------------------------------------------
set {
	reference rhf
	basis 6-31G*
}

set_num_threads( 4 )
memory 2 gb

molecule MOL {
0 1

O	 0.606636	 0.519441	 0.994430
C	 1.122059	 0.121804	 -0.000188
C	 0.689596	 0.455379	 -1.407170
O	 2.172624	 -0.688929	 0.000216
C	 -0.517652	 1.386218	 -1.465758
H	 1.546223	 0.889177	 -1.915860
H	 0.488052	 -0.483311	 -1.916084
C	 -0.934854	 1.707591	 -2.901734
H	 -0.287983	 2.304858	 -0.934855
H	 -1.347584	 0.930575	 -0.934622
C	 -2.144573	 2.638701	 -2.969676
H	 -0.099465	 2.163163	 -3.429613
H	 -1.161320	 0.783544	 -3.429866
H	 -1.937699	 3.585667	 -2.479662
H	 -2.419388	 2.850784	 -3.998157
H	 -3.007288	 2.195937	 -2.480470
C	 3.452279	 -0.082609	 0.000533
H	 3.583069	 0.529321	 -0.880332
H	 4.163299	 -0.894027	 0.001117
H	 3.582335	 0.529955	 0.881077

	symmetry c1
}
set optking {
	frozen_dihedral = ("
		1 2 4 17
	")
}

ee = optimize('scf')
oeprop('DIPOLE', 'QUADRUPOLE', 'MULLIKEN_CHARGES')
f=open( 'psi4out.xyz', 'w' )
f.write( "20  " )
f.write( str(ee) + "\n" )
f.write( MOL.save_string_xyz() )
f.close()
--------------------------------------------------------------------------

    Molecular point group: c1
  Charge       = 0
  Multiplicity = 1
  Basis Set: 6-31G*
  Basis Set:
  @DF-RHF Final Energy:  -383.91990845522287
    Total Energy =                       -383.9199084552232080
    Molecular point group: c1
  Basis Set: 6-31G*
  Basis Set:
  Basis Set: 6-31G*
  Basis Set:
  @DF-RHF Final Energy:  -383.91830377949083
    Total Energy =                       -383.9183037794907705
  Basis Set: 6-31G*
  Basis Set:
  Basis Set: 6-31G*
  Basis Set:
  @DF-RHF Final Energy:  -383.92092176502922
    Total Energy =                       -383.9209217650292203
  Basis Set: 6-31G*
  Basis Set:
  Basis Set: 6-31G*
  Basis Set:
  @DF-RHF Final Energy:  -383.92146457913492
    Total Energy =                       -383.9214645791349767
  Basis Set: 6-31G*
  Basis Set:
  Basis Set: 6-31G*
  Basis Set:
  @DF-RHF Final Energy:  -383.92148100102384
    Total Energy =                       -383.9214810010238352
  Basis Set: 6-31G*
  Basis Set:
  Basis Set: 6-31G*
  Basis Set:
  @DF-RHF Final Energy:  -383.92148330639787
    Total Energy =                       -383.9214833063974766
  Basis Set: 6-31G*
  Basis Set:
  Charge       = 0
  Multiplicity = 1
  Basis Set: 6-31G*
  Basis Set:

    Orbital Energies (a.u.)
    -----------------------

    Doubly Occupied:

       1A    -20.585379     2A    -20.557750     3A    -11.375314
       4A    -11.291970     5A    -11.240095     6A    -11.223019
       7A    -11.222314     8A    -11.212663     9A     -1.458964
      10A     -1.367604    11A     -1.090360    12A     -1.019273
      13A     -0.971068    14A     -0.896141    15A     -0.807758
      16A     -0.765953    17A     -0.695796    18A     -0.679010
      19A     -0.673953    20A     -0.643661    21A     -0.616470
      22A     -0.590473    23A     -0.589091    24A     -0.549592
      25A     -0.537807    26A     -0.513303    27A     -0.495078
      28A     -0.489791    29A     -0.479566    30A     -0.472787
      31A     -0.451603    32A     -0.433891

  @DF-RHF Final Energy:  -383.92148325255755

   => Energetics <=

    Nuclear Repulsion Energy =            381.2578292944004943
    One-Electron Energy =               -1278.3636274038390184
    Two-Electron Energy =                 513.1843148568810875
    DFT Exchange-Correlation Energy =       0.0000000000000000
    Empirical Dispersion Energy =           0.0000000000000000
    PCM Polarization Energy =               0.0000000000000000
    EFP Energy =                            0.0000000000000000
    Total Energy =                       -383.9214832525574366
    Molecular point group: c1
  Basis Set: 6-31G*
  Basis Set:

  -Total Gradient:
     Atom            X                  Y                   Z
    ------   -----------------  -----------------  -----------------
       1       -0.001931190034    -0.002545679937    -0.000243622298
       2        0.002726315009     0.003756039198    -0.000910905387
       3        0.000003048369     0.000034855078     0.000003233916
       4       -0.000918570694    -0.001343203731     0.003778154741
       5        0.000005023804     0.000005542376    -0.000015221172
       6        0.000002623134     0.000009060636     0.000002102404
       7        0.000006802689     0.000002803426     0.000000474660
       8        0.000021566242     0.000010261872    -0.000007392917
       9        0.000018189172     0.000001344825    -0.000002559661
      10       -0.000014824786     0.000002968841     0.000012709005
      11       -0.000008441580    -0.000023002907     0.000020073826
      12        0.000000575700     0.000013492675     0.000000304080
      13        0.000014323721    -0.000000299222     0.000000208079
      14        0.000004472837    -0.000000311947    -0.000005641725
      15        0.000003563199    -0.000014614788     0.000001974421
      16       -0.000005792406     0.000005300035     0.000006276924
      17        0.000058465459     0.000083203891    -0.002640389472
      18        0.000015654641     0.000004306592    -0.000006731196
      19       -0.000001560021    -0.000006104572    -0.000003232996
      20       -0.000000244457     0.000004037660     0.000010184762

  **** Optimization is complete! (in 7 steps) ****
    Final optimized geometry and variables:
    Molecular point group: c1

    Geometry (in Angstrom), charge = 0, multiplicity = 1:

    O            0.019429075659    -0.281973725303     1.915387373051
    C            0.557875293850    -0.624124970180     0.921134519769
    C            0.095530625364    -0.284546126405    -0.475173075697
    O            1.630162173118    -1.451780133731     0.943401066402
    C           -1.103836296509     0.656854416014    -0.517897971748
    H            0.940138548493     0.132940325679    -1.018561091761
    H           -0.126615816603    -1.228741447914    -0.966657358136
    C           -1.554004863419     0.964213200521    -1.946927020880
    H           -0.853610724442     1.580731006030    -0.004628478745
    H           -1.923148580645     0.214665077700     0.039812580953
    C           -2.759965613635     1.901295198353    -1.996209664703
    H           -0.729465698667     1.408820443552    -2.500833758438
    H           -1.798443656632     0.035245152393    -2.457957723606
    H           -2.535640543853     2.853431458369    -1.524181472221
    H           -3.059640995996     2.101418219487    -3.020083509741
    H           -3.612149893818     1.469730550604    -1.479480106487
    C            2.901218640686    -0.844593870024     1.026628822802
    H            3.095199646660    -0.218193082075     0.161992807403
    H            3.623695662677    -1.645329763321     1.052200050498
    H            2.984063280445    -0.253131047624     1.930226342429

  Mulliken Charges: (a.u.)
   Center  Symbol    Alpha    Beta     Spin     Total
       1     O     4.25170  4.25170  0.00000 -0.50340
       2     C     2.61379  2.61379  0.00000  0.77243
       3     C     3.21325  3.21325  0.00000 -0.42650
       4     O     4.31589  4.31589  0.00000 -0.63177
       5     C     3.15152  3.15152  0.00000 -0.30304
       6     H     0.40806  0.40806  0.00000  0.18388
       7     H     0.39760  0.39760  0.00000  0.20480
       8     C     3.15418  3.15418  0.00000 -0.30835
       9     H     0.41387  0.41387  0.00000  0.17225
      10     H     0.40933  0.40933  0.00000  0.18134
      11     C     3.23943  3.23943  0.00000 -0.47886
      12     H     0.42378  0.42378  0.00000  0.15245
      13     H     0.42218  0.42218  0.00000  0.15565
      14     H     0.42011  0.42011  0.00000  0.15977
      15     H     0.41840  0.41840  0.00000  0.16320
      16     H     0.41922  0.41922  0.00000  0.16155
      17     C     3.09293  3.09293  0.00000 -0.18586
      18     H     0.42300  0.42300  0.00000  0.15400
      19     H     0.40246  0.40246  0.00000  0.19507
      20     H     0.40931  0.40931  0.00000  0.18138

   Total alpha = 32.00000, Total beta = 32.00000, Total charge = -0.00000
