  ==> Input File <==

--------------------------------------------------------------------------
set {
	reference rhf
	basis 6-31G*
}

set_num_threads( 1 )
memory 2 gb

molecule MOL {
0 1

H	 -0.916873	 3.008049	 3.466266
O	 -0.229930	 2.422974	 3.180431
C	 -0.615722	 1.788324	 1.988385
C	 0.507252	 0.860284	 1.560110
H	 -1.533091	 1.220143	 2.136412
H	 -0.809774	 2.523396	 1.208415
C	 0.198102	 0.111031	 0.262842
H	 0.693130	 0.154390	 2.365027
H	 1.413020	 1.449442	 1.446292
C	 1.331804	 -0.827780	 -0.158768
H	 -0.722995	 -0.453214	 0.386855
H	 0.013588	 0.828120	 -0.536068
C	 2.723619	 -0.410569	 0.329459
H	 1.342964	 -0.912588	 -1.244120
H	 1.116806	 -1.824343	 0.220779
C	 3.243875	 0.895854	 -0.272975
H	 3.424222	 -1.207124	 0.091250
H	 2.714788	 -0.329854	 1.414619
H	 3.251977	 0.848779	 -1.358681
H	 2.637085	 1.747371	 0.016682
H	 4.259473	 1.094070	 0.055697

	symmetry c1
}
set optking {
	frozen_dihedral = ("
		2 3 4 8,
		8 4 7 10,
		16 13 10 14,
		1 2 3 5
	")
}

ee = energy('scf')
oeprop('DIPOLE', 'QUADRUPOLE', 'MULLIKEN_CHARGES')
f=open( 'psi4out.xyz', 'w' )
f.write( "21  " )
f.write( str(ee) + "\n" )
f.write( MOL.save_string_xyz() )
f.close()
--------------------------------------------------------------------------

    Molecular point group: c1

    Geometry (in Angstrom), charge = 0, multiplicity = 1:

       Center              X                  Y                   Z               Mass
    ------------   -----------------  -----------------  -----------------  -----------------
           H         -1.915907562872     2.263993635720     2.436688627565     1.007825032070
           O         -1.228964562872     1.678918635720     2.150853627565    15.994914619560
           C         -1.614756562872     1.044268635720     0.958807627565    12.000000000000
           C         -0.491782562872     0.116228635720     0.530532627565    12.000000000000
           H         -2.532125562872     0.476087635720     1.106834627565     1.007825032070
           H         -1.808808562872     1.779340635720     0.178837627565     1.007825032070
           C         -0.800932562872    -0.633024364280    -0.766735372435    12.000000000000
           H         -0.305904562872    -0.589665364280     1.335449627565     1.007825032070
           H          0.413985437128     0.705386635720     0.416714627565     1.007825032070
           C          0.332769437128    -1.571835364280    -1.188345372435    12.000000000000
           H         -1.722029562872    -1.197269364280    -0.642722372435     1.007825032070
           H         -0.985446562872     0.084064635720    -1.565645372435     1.007825032070
           C          1.724584437128    -1.154624364280    -0.700118372435    12.000000000000
           H          0.343929437128    -1.656643364280    -2.273697372435     1.007825032070
           H          0.117771437128    -2.568398364280    -0.808798372435     1.007825032070
           C          2.244840437128     0.151798635720    -1.302552372435    12.000000000000
           H          2.425187437128    -1.951179364280    -0.938327372435     1.007825032070
           H          1.715753437128    -1.073909364280     0.385041627565     1.007825032070
           H          2.252942437128     0.104723635720    -2.388258372435     1.007825032070
           H          1.638050437128     1.003315635720    -1.012895372435     1.007825032070
           H          3.260438437128     0.350014635720    -0.973880372435     1.007825032070

  Charge       = 0
  Multiplicity = 1
  Basis Set: 6-31G*
  Basis Set:

    Orbital Energies (a.u.)
    -----------------------

    Doubly Occupied:

       1A    -20.551487     2A    -11.266147     3A    -11.214965
       4A    -11.212716     5A    -11.212035     6A    -11.208540
       7A    -11.205940     8A     -1.358240     9A     -1.090029
      10A     -1.025089    11A     -0.957464    12A     -0.874183
      13A     -0.821609    14A     -0.761434    15A     -0.688430
      16A     -0.662575    17A     -0.631273    18A     -0.616613
      19A     -0.571967    20A     -0.562618    21A     -0.541533
      22A     -0.531286    23A     -0.500524    24A     -0.494767
      25A     -0.477301    26A     -0.451042    27A     -0.447185
      28A     -0.446149    29A     -0.433242

  @DF-RHF Final Energy:  -310.20216762538075

   => Energetics <=

    Nuclear Repulsion Energy =            324.2512029315134896
    One-Electron Energy =               -1063.2738320373505303
    Two-Electron Energy =                 428.8204614804557195
    DFT Exchange-Correlation Energy =       0.0000000000000000
    Empirical Dispersion Energy =           0.0000000000000000
    PCM Polarization Energy =               0.0000000000000000
    EFP Energy =                            0.0000000000000000
    Total Energy =                       -310.2021676253813212

  Mulliken Charges: (a.u.)
   Center  Symbol    Alpha    Beta     Spin     Total
       1     H     0.28121  0.28121  0.00000  0.43758
       2     O     4.37207  4.37207  0.00000 -0.74414
       3     C     2.98803  2.98803  0.00000  0.02394
       4     C     3.16833  3.16833  0.00000 -0.33665
       5     H     0.43328  0.43328  0.00000  0.13344
       6     H     0.43339  0.43339  0.00000  0.13323
       7     C     3.16267  3.16267  0.00000 -0.32534
       8     H     0.41427  0.41427  0.00000  0.17146
       9     H     0.41003  0.41003  0.00000  0.17994
      10     C     3.15227  3.15227  0.00000 -0.30455
      11     H     0.42003  0.42003  0.00000  0.15994
      12     H     0.42242  0.42242  0.00000  0.15516
      13     C     3.16238  3.16238  0.00000 -0.32476
      14     H     0.42176  0.42176  0.00000  0.15648
      15     H     0.42075  0.42075  0.00000  0.15849
      16     C     3.24123  3.24123  0.00000 -0.48245
      17     H     0.41949  0.41949  0.00000  0.16102
      18     H     0.41624  0.41624  0.00000  0.16752
      19     H     0.42251  0.42251  0.00000  0.15498
      20     H     0.41914  0.41914  0.00000  0.16172
      21     H     0.41851  0.41851  0.00000  0.16297

   Total alpha = 29.00000, Total beta = 29.00000, Total charge =  0.00000
