  ==> Input File <==

--------------------------------------------------------------------------
set {
	reference rhf
	basis 6-31G*
}

set_num_threads( 1 )
memory 2 gb

molecule MOL {
0 1

O	 1.846825	 1.296220	 0.000415
C	 1.705091	 0.115954	 0.001797
C	 0.381791	 -0.609817	 0.001258
O	 2.721346	 -0.737485	 -0.000216
C	 -0.823008	 0.326187	 0.001381
H	 0.371250	 -1.265087	 -0.865474
H	 0.370908	 -1.265746	 0.867490
C	 -0.685803	 1.448704	 1.031037
H	 -1.722244	 -0.248488	 0.199653
H	 -0.947774	 0.748645	 -0.990724
C	 -1.886202	 2.396699	 1.045364
H	 -0.557405	 1.018624	 2.023278
H	 0.218971	 2.019802	 0.828276
C	 -1.747985	 3.518776	 2.073514
H	 -2.790543	 1.828110	 1.250337
H	 -2.015233	 2.827795	 0.055089
H	 -1.651832	 3.119685	 3.079345
H	 -2.613704	 4.173589	 2.059307
H	 -0.870028	 4.127077	 1.874837
C	 4.024888	 -0.184556	 -0.001949
H	 4.179030	 0.422472	 -0.882452
H	 4.701782	 -1.024608	 -0.003642
H	 4.181981	 0.421185	 0.878906

	symmetry c1
}
set optking {
	frozen_dihedral = ("
		15 11 8 12,
		9 5 8 12,
		1 2 3 6,
		1 2 4 20
	")
}

ee = energy('scf')
oeprop('DIPOLE', 'QUADRUPOLE', 'MULLIKEN_CHARGES')
f=open( 'psi4out.xyz', 'w' )
f.write( "23  " )
f.write( str(ee) + "\n" )
f.write( MOL.save_string_xyz() )
f.close()
--------------------------------------------------------------------------

    Molecular point group: c1

    Geometry (in Angstrom), charge = 0, multiplicity = 1:

       Center              X                  Y                   Z               Mass
    ------------   -----------------  -----------------  -----------------  -----------------
           O          1.189215256093     0.449823923159    -0.462980073702    15.994914619560
           C          1.047481256093    -0.730442076841    -0.461598073702    12.000000000000
           C         -0.275818743907    -1.456213076841    -0.462137073702    12.000000000000
           O          2.063736256093    -1.583881076841    -0.463611073702    15.994914619560
           C         -1.480617743907    -0.520209076841    -0.462014073702    12.000000000000
           H         -0.286359743907    -2.111483076841    -1.328869073702     1.007825032070
           H         -0.286701743907    -2.112142076841     0.404094926298     1.007825032070
           C         -1.343412743907     0.602307923159     0.567641926298    12.000000000000
           H         -2.379853743907    -1.094884076841    -0.263742073702     1.007825032070
           H         -1.605383743907    -0.097751076841    -1.454119073702     1.007825032070
           C         -2.543811743907     1.550302923159     0.581968926298    12.000000000000
           H         -1.215014743907     0.172227923159     1.559882926298     1.007825032070
           H         -0.438638743907     1.173405923159     0.364880926298     1.007825032070
           C         -2.405594743907     2.672379923159     1.610118926298    12.000000000000
           H         -3.448152743907     0.981713923159     0.786941926298     1.007825032070
           H         -2.672842743907     1.981398923159    -0.408306073702     1.007825032070
           H         -2.309441743907     2.273288923159     2.615949926298     1.007825032070
           H         -3.271313743907     3.327192923159     1.595911926298     1.007825032070
           H         -1.527637743907     3.280680923159     1.411441926298     1.007825032070
           C          3.367278256093    -1.030952076841    -0.465344073702    12.000000000000
           H          3.521420256093    -0.423924076841    -1.345847073702     1.007825032070
           H          4.044172256093    -1.871004076841    -0.467037073702     1.007825032070
           H          3.524371256093    -0.425211076841     0.415510926298     1.007825032070

  Charge       = 0
  Multiplicity = 1
  Basis Set: 6-31G*
  Basis Set:

    Orbital Energies (a.u.)
    -----------------------

    Doubly Occupied:

       1A    -20.606408     2A    -20.547679     3A    -11.376079
       4A    -11.282754     5A    -11.236569     6A    -11.218574
       7A    -11.205565     8A    -11.200713     9A    -11.195779
      10A     -1.473037    11A     -1.368115    12A     -1.087925
      13A     -1.037850    14A     -0.985645    15A     -0.926038
      16A     -0.841233    17A     -0.788009    18A     -0.771042
      19A     -0.700429    20A     -0.683519    21A     -0.675473
      22A     -0.638401    23A     -0.611003    24A     -0.598479
      25A     -0.563238    26A     -0.553685    27A     -0.550475
      28A     -0.531504    29A     -0.519302    30A     -0.506234
      31A     -0.489844    32A     -0.470217    33A     -0.459011
      34A     -0.456871    35A     -0.444446    36A     -0.416329

  @DF-RHF Final Energy:  -422.96568151658170

   => Energetics <=

    Nuclear Repulsion Energy =            469.4230578223114776
    One-Electron Energy =               -1506.7423583690479063
    Two-Electron Energy =                 614.3536190301550732
    DFT Exchange-Correlation Energy =       0.0000000000000000
    Empirical Dispersion Energy =           0.0000000000000000
    PCM Polarization Energy =               0.0000000000000000
    EFP Energy =                            0.0000000000000000
    Total Energy =                       -422.9656815165814123

  Mulliken Charges: (a.u.)
   Center  Symbol    Alpha    Beta     Spin     Total
       1     O     4.28756  4.28756  0.00000 -0.57511
       2     C     2.60230  2.60230  0.00000  0.79541
       3     C     3.21052  3.21052  0.00000 -0.42105
       4     O     4.30720  4.30720  0.00000 -0.61440
       5     C     3.15412  3.15412  0.00000 -0.30824
       6     H     0.39763  0.39763  0.00000  0.20474
       7     H     0.39951  0.39951  0.00000  0.20097
       8     C     3.17047  3.17047  0.00000 -0.34095
       9     H     0.41772  0.41772  0.00000  0.16456
      10     H     0.41642  0.41642  0.00000  0.16716
      11     C     3.14972  3.14972  0.00000 -0.29944
      12     H     0.43164  0.43164  0.00000  0.13672
      13     H     0.38057  0.38057  0.00000  0.23886
      14     C     3.23880  3.23880  0.00000 -0.47760
      15     H     0.42839  0.42839  0.00000  0.14321
      16     H     0.42411  0.42411  0.00000  0.15178
      17     H     0.42350  0.42350  0.00000  0.15300
      18     H     0.42144  0.42144  0.00000  0.15711
      19     H     0.41995  0.41995  0.00000  0.16010
      20     C     3.09267  3.09267  0.00000 -0.18534
      21     H     0.40884  0.40884  0.00000  0.18233
      22     H     0.40789  0.40789  0.00000  0.18422
      23     H     0.40901  0.40901  0.00000  0.18197

   Total alpha = 36.00000, Total beta = 36.00000, Total charge =  0.00000
