                              Psi4 1.0.54 Driver

  ==> Input File <==

--------------------------------------------------------------------------
set {
	reference rhf
	basis cc-pvtz
}

set_num_threads( 4 )
memory 2 gb

molecule MOL {
0 1

H	 -0.366580	 2.045936	 -0.305741
C	 0.351829	 1.335402	 0.083179
N	 -0.000018	 0.000080	 -0.334836
H	 1.327156	 1.599860	 -0.305475
H	 0.380566	 1.445403	 1.171445
C	 -0.680505	 -0.005427	 -1.607348
C	 1.139142	 -0.885646	 -0.328065
H	 -0.990808	 -1.012330	 -1.856248
H	 -1.566949	 0.614006	 -1.555326
H	 -0.055276	 0.367242	 -2.424218
H	 1.582944	 -0.909891	 0.659170
H	 0.826956	 -1.891584	 -0.578571
H	 1.914239	 -0.585212	 -1.039455

	symmetry c1
}
set optking {
	frozen_dihedral = ("
		6 3 2 1
	")
}

ee,wfn = optimize('scf', return_wfn=True)
oeprop( wfn, 'DIPOLE', 'QUADRUPOLE', 'MULLIKEN_CHARGES')
f=open( 'psi4out.xyz', 'w' )
f.write( "13  " )
f.write( str(ee) + "\n" )
f.write( MOL.save_string_xyz() )
f.close()
--------------------------------------------------------------------------

    Molecular point group: c1
  Charge       = 0
  Multiplicity = 1
  Basis Set: CC-PVTZ
  Basis Set:
  @DF-RHF Final Energy:  -173.33077393173002
    Total Energy =                       -173.3307739317299081
    Molecular point group: c1
  Basis Set: CC-PVTZ
  Basis Set:
  Basis Set: CC-PVTZ
  Basis Set:
  @DF-RHF Final Energy:  -173.33152864486092
    Total Energy =                       -173.3315286448608958
  Basis Set: CC-PVTZ
  Basis Set:
  Basis Set: CC-PVTZ
  Basis Set:
  @DF-RHF Final Energy:  -173.33161264823636
    Total Energy =                       -173.3316126482364155
  Basis Set: CC-PVTZ
  Basis Set:
  Basis Set: CC-PVTZ
  Basis Set:
  @DF-RHF Final Energy:  -173.33161652699417
    Total Energy =                       -173.3316165269940825
  Basis Set: CC-PVTZ
  Basis Set:
  Charge       = 0
  Multiplicity = 1
  Basis Set: CC-PVTZ
  Basis Set:

    Orbital Energies (a.u.)
    -----------------------

    Doubly Occupied:

       1A    -15.536501     2A    -11.234518     3A    -11.234202
       4A    -11.234175     5A     -1.224674     6A     -0.953349
       7A     -0.952322     8A     -0.805905     9A     -0.640610
      10A     -0.631973    11A     -0.630661    12A     -0.546667
      13A     -0.543691    14A     -0.516393    15A     -0.503889
      16A     -0.502933    17A     -0.342944

  @DF-RHF Final Energy:  -173.33161684896535

   => Energetics <=

    Nuclear Repulsion Energy =            139.1910464430634136
    One-Electron Energy =                -508.9745140507698693
    Two-Electron Energy =                 196.4518507587410738
    DFT Exchange-Correlation Energy =       0.0000000000000000
    Empirical Dispersion Energy =           0.0000000000000000
    PCM Polarization Energy =               0.0000000000000000
    EFP Energy =                            0.0000000000000000
    Total Energy =                       -173.3316168489654103
    Molecular point group: c1
  Basis Set: CC-PVTZ
  Basis Set:

  -Total Gradient:
     Atom            X                  Y                   Z
    ------   -----------------  -----------------  -----------------
       1        0.002469406274     0.000603899502    -0.003738512620
       2       -0.004322477808    -0.000685596879     0.005372366495
       3        0.004873303179    -0.000158752511    -0.003279686080
       4        0.000008966606     0.000016212690    -0.000008681244
       5        0.000002750137    -0.000015313072    -0.000011426493
       6       -0.003034199536     0.000219405609     0.001664056681
       7        0.000008865321     0.000022767891     0.000007499386
       8        0.000001828741     0.000003219809    -0.000000541668
       9       -0.000002500641    -0.000003073058    -0.000005125815
      10       -0.000001008900    -0.000002691534     0.000002771552
      11        0.000003478813    -0.000003653953    -0.000000509150
      12       -0.000007784562     0.000005530293     0.000000062529
      13       -0.000000627622    -0.000001954788    -0.000002273573

  **** Optimization is complete! (in 5 steps) ****
    Final optimized geometry and variables:
    Molecular point group: c1

    Geometry (in Angstrom), charge = 0, multiplicity = 1:

    H           -0.610882629589     1.935159290840     0.269180577494
    C            0.123379522579     1.232177245768     0.638872203549
    N           -0.202911401467    -0.105917298676     0.202433682954
    H            1.090451534800     1.570128474544     0.255584988035
    H            0.156559301813     1.288729770424     1.720294949943
    C           -0.894661018965    -0.152196902254    -1.060592864821
    C            0.921491996941    -1.001505909185     0.273248681459
    H           -1.179722969156    -1.172773787733    -1.284244526493
    H           -1.798328173012     0.441051120981    -1.009720678098
    H           -0.294080447050     0.216784409615    -1.898600761290
    H            1.344456940115    -0.983930121843     1.270439595611
    H            0.605133179707    -2.015878883929     0.064489573298
    H            1.717204651196    -0.741999871226    -0.432277787614

  Mulliken Charges: (a.u.)
   Center  Symbol    Alpha    Beta     Spin     Total
       1     H     0.45534  0.45534  0.00000  0.08932
       2     C     3.08743  3.08743  0.00000 -0.17486
       3     N     3.59635  3.59635  0.00000 -0.19269
       4     H     0.47261  0.47261  0.00000  0.05479
       5     H     0.45086  0.45086  0.00000  0.09829
       6     C     3.08838  3.08838  0.00000 -0.17677
       7     C     3.08913  3.08913  0.00000 -0.17826
       8     H     0.45325  0.45325  0.00000  0.09350
       9     H     0.45247  0.45247  0.00000  0.09507
      10     H     0.47448  0.47448  0.00000  0.05104
      11     H     0.45298  0.45298  0.00000  0.09404
      12     H     0.45326  0.45326  0.00000  0.09347
      13     H     0.47347  0.47347  0.00000  0.05306

   Total alpha = 17.00000, Total beta = 17.00000, Total charge = -0.00000

*** Psi4 exiting successfully. Buy a developer a beer!
