                              Psi4 1.0.54 Driver

  ==> Input File <==

--------------------------------------------------------------------------
set {
	reference rhf
	basis cc-pvtz
}

set_num_threads( 4 )
memory 2 gb

molecule MOL {
0 1

H	 1.266152	 -1.708065	 1.261879
O	 0.593815	 -1.140659	 0.933143
C	 1.135873	 0.113391	 0.608264
C	 0.027642	 1.012027	 0.090274
H	 1.896510	 0.008741	 -0.161313
H	 1.613073	 0.556968	 1.477736
C	 -1.138737	 0.285728	 -0.581921
H	 0.464661	 1.708096	 -0.618252
H	 -0.340737	 1.603071	 0.925246
C	 -1.933983	 -0.631436	 0.343653
H	 -0.763151	 -0.285569	 -1.422081
H	 -1.808359	 1.035291	 -0.992333
H	 -2.789188	 -1.049673	 -0.174718
H	 -1.335629	 -1.461368	 0.700418
H	 -2.305435	 -0.092167	 1.209725

	symmetry c1
}
set optking {
	frozen_dihedral = ("
		2 3 4 8
	")
}

ee,wfn = optimize('scf', return_wfn=True)
oeprop( wfn, 'DIPOLE', 'QUADRUPOLE', 'MULLIKEN_CHARGES')
f=open( 'psi4out.xyz', 'w' )
f.write( "15  " )
f.write( str(ee) + "\n" )
f.write( MOL.save_string_xyz() )
f.close()
--------------------------------------------------------------------------

    Molecular point group: c1
  Charge       = 0
  Multiplicity = 1
  Basis Set: CC-PVTZ
  Basis Set:
  @DF-RHF Final Energy:  -232.22252674408571
    Total Energy =                       -232.2225267440859398
    Molecular point group: c1
  Basis Set: CC-PVTZ
  Basis Set:
  Basis Set: CC-PVTZ
  Basis Set:
  @DF-RHF Final Energy:  -232.22932090974501
    Total Energy =                       -232.2293209097448994
  Basis Set: CC-PVTZ
  Basis Set:
  Basis Set: CC-PVTZ
  Basis Set:
  @DF-RHF Final Energy:  -232.23082423831690
    Total Energy =                       -232.2308242383169272
  Basis Set: CC-PVTZ
  Basis Set:
  Basis Set: CC-PVTZ
  Basis Set:
  @DF-RHF Final Energy:  -232.23123019888973
    Total Energy =                       -232.2312301988898753
  Basis Set: CC-PVTZ
  Basis Set:
  Basis Set: CC-PVTZ
  Basis Set:
  @DF-RHF Final Energy:  -232.23149764248063
    Total Energy =                       -232.2314976424805195
  Basis Set: CC-PVTZ
  Basis Set:
  Basis Set: CC-PVTZ
  Basis Set:
  @DF-RHF Final Energy:  -232.23151448036904
    Total Energy =                       -232.2315144803688440
  Basis Set: CC-PVTZ
  Basis Set:
  Basis Set: CC-PVTZ
  Basis Set:
  @DF-RHF Final Energy:  -232.23151773828303
    Total Energy =                       -232.2315177382827187
  Basis Set: CC-PVTZ
  Basis Set:
  Charge       = 0
  Multiplicity = 1
  Basis Set: CC-PVTZ
  Basis Set:

    Orbital Energies (a.u.)
    -----------------------

    Doubly Occupied:

       1A    -20.547676     2A    -11.267610     3A    -11.212115
       4A    -11.206698     5A    -11.191734     6A     -1.365967
       7A     -1.059750     8A     -0.970035     9A     -0.861029
      10A     -0.777263    11A     -0.707581    12A     -0.647911
      13A     -0.606573    14A     -0.580601    15A     -0.546156
      16A     -0.538639    17A     -0.510070    18A     -0.474618
      19A     -0.460916    20A     -0.446562    21A     -0.431422

  @DF-RHF Final Energy:  -232.23151828812027

   => Energetics <=

    Nuclear Repulsion Energy =            192.9518683655875009
    One-Electron Energy =                -697.5449203174624699
    Two-Electron Energy =                 272.3615336637545852
    DFT Exchange-Correlation Energy =       0.0000000000000000
    Empirical Dispersion Energy =           0.0000000000000000
    PCM Polarization Energy =               0.0000000000000000
    EFP Energy =                            0.0000000000000000
    Total Energy =                       -232.2315182881203555
    Molecular point group: c1
  Basis Set: CC-PVTZ
  Basis Set:

  -Total Gradient:
     Atom            X                  Y                   Z
    ------   -----------------  -----------------  -----------------
       1        0.000015004205    -0.000006009440     0.000002715150
       2        0.000784906752    -0.001011984338    -0.004116715979
       3       -0.001185186317     0.000653313760     0.004651439298
       4        0.000983474125     0.003732546486     0.003653551250
       5       -0.000011846535     0.000007921942    -0.000004763242
       6        0.000004887146     0.000017135698     0.000011291007
       7       -0.000039652319    -0.000027944757    -0.000054385579
       8       -0.000570194000    -0.003356909123    -0.004174865039
       9        0.000004900897     0.000000324779    -0.000000018174
      10        0.000024253231     0.000004374881     0.000052434131
      11       -0.000003466462     0.000002402438     0.000007979586
      12        0.000004982295     0.000011903157     0.000005464113
      13       -0.000028259038    -0.000036549976    -0.000011654930
      14        0.000011488932    -0.000009941165    -0.000005619194
      15        0.000004707087     0.000019415655    -0.000016852397

  **** Optimization is complete! (in 8 steps) ****
    Final optimized geometry and variables:
    Molecular point group: c1

    Geometry (in Angstrom), charge = 0, multiplicity = 1:

    H            1.872216809749    -1.465999867570     0.862344753524
    O            1.093617035979    -1.017595396595     0.589147094260
    C            1.393587349652     0.325736194535     0.311429461804
    C            0.145146981580     1.095056425338    -0.130096634318
    H            2.129308232960     0.365452189182    -0.488480135885
    H            1.833416753802     0.808329250864     1.179575022237
    C           -0.906633170079     0.271510563157    -0.889331664631
    H            0.486731587245     1.873656294946    -0.804065970531
    H           -0.322706449231     1.578549758472     0.720485268276
    C           -1.894122110266    -0.478221902975     0.001340534138
    H           -0.410035304007    -0.427444330067    -1.553614805195
    H           -1.466645619743     0.951563347230    -1.523977338315
    H           -2.618387146376    -1.017186709738    -0.600232933732
    H           -1.389843889420    -1.187575081056     0.640699656740
    H           -2.443883717967     0.214774732808     0.631133915278

  Mulliken Charges: (a.u.)
   Center  Symbol    Alpha    Beta     Spin     Total
       1     H     0.39811  0.39811  0.00000  0.20377
       2     O     4.19212  4.19212  0.00000 -0.38425
       3     C     2.96968  2.96968  0.00000  0.06064
       4     C     3.10116  3.10116  0.00000 -0.20231
       5     H     0.47271  0.47271  0.00000  0.05459
       6     H     0.46808  0.46808  0.00000  0.06385
       7     C     3.08299  3.08299  0.00000 -0.16598
       8     H     0.44990  0.44990  0.00000  0.10019
       9     H     0.45406  0.45406  0.00000  0.09188
      10     C     3.14709  3.14709  0.00000 -0.29418
      11     H     0.45366  0.45366  0.00000  0.09269
      12     H     0.45121  0.45121  0.00000  0.09759
      13     H     0.45350  0.45350  0.00000  0.09300
      14     H     0.44509  0.44509  0.00000  0.10982
      15     H     0.46065  0.46065  0.00000  0.07870

   Total alpha = 21.00000, Total beta = 21.00000, Total charge = -0.00000

*** Psi4 exiting successfully. Buy a developer a beer!
