  ==> Input File <==

--------------------------------------------------------------------------
set {
	reference rhf
	basis 6-31G*
}

set_num_threads( 4 )
memory 2 gb

molecule MOL {
0 1

H	 -3.042581	 -0.665861	 0.004336
O	 -2.245037	 -1.176175	 0.000806
C	 -1.162163	 -0.365336	 0.001020
C	 -1.172536	 0.888093	 0.585945
C	 -0.014151	 -0.840217	 -0.621385
H	 -2.062426	 1.258599	 1.066355
C	 -0.021475	 1.662061	 0.541889
H	 -0.042108	 -1.817572	 -1.067604
C	 1.133579	 -0.068178	 -0.663642
H	 -0.026743	 2.638232	 0.993666
C	 1.122145	 1.196347	 -0.074730
C	 2.389756	 -0.593065	 -1.319090
H	 2.005825	 1.809249	 -0.102803
H	 2.863231	 0.171627	 -1.925603
H	 2.178071	 -1.444030	 -1.955416
H	 3.110996	 -0.909683	 -0.570817

	symmetry c1
}
set optking {
	frozen_dihedral = ("
		5 3 2 1
	")
}

ee = optimize('scf')
oeprop('DIPOLE', 'QUADRUPOLE', 'MULLIKEN_CHARGES')
f=open( 'psi4out.xyz', 'w' )
f.write( "16  " )
f.write( str(ee) + "\n" )
f.write( MOL.save_string_xyz() )
f.close()
--------------------------------------------------------------------------

    Molecular point group: c1
  Charge       = 0
  Multiplicity = 1
  Basis Set: 6-31G*
  Basis Set:
  @DF-RHF Final Energy:  -344.59385214659181
    Total Energy =                       -344.5938521465920985
    Molecular point group: c1
  Basis Set: 6-31G*
  Basis Set:
  Basis Set: 6-31G*
  Basis Set:
  @DF-RHF Final Energy:  -344.59390245041584
    Total Energy =                       -344.5939024504156691
  Basis Set: 6-31G*
  Basis Set:
  Basis Set: 6-31G*
  Basis Set:
  @DF-RHF Final Energy:  -344.59391203343927
    Total Energy =                       -344.5939120334394374
  Basis Set: 6-31G*
  Basis Set:
  Basis Set: 6-31G*
  Basis Set:
  @DF-RHF Final Energy:  -344.59391304818757
    Total Energy =                       -344.5939130481876873
  Basis Set: 6-31G*
  Basis Set:
  Charge       = 0
  Multiplicity = 1
  Basis Set: 6-31G*
  Basis Set:

    Orbital Energies (a.u.)
    -----------------------

    Doubly Occupied:

       1A    -20.585146     2A    -11.293656     3A    -11.241424
       4A    -11.234518     5A    -11.222672     6A    -11.220377
       7A    -11.217319     8A    -11.216794     9A     -1.402813
      10A     -1.149505    11A     -1.042880    12A     -1.004397
      13A     -0.936039    14A     -0.823068    15A     -0.820300
      16A     -0.713098    17A     -0.679594    18A     -0.652789
      19A     -0.612384    20A     -0.590171    21A     -0.573110
      22A     -0.568535    23A     -0.556957    24A     -0.526699
      25A     -0.504140    26A     -0.481713    27A     -0.466374
      28A     -0.328670    29A     -0.308673

  @DF-RHF Final Energy:  -344.59391333156844

   => Energetics <=

    Nuclear Repulsion Energy =            345.4107584937767683
    One-Electron Energy =               -1152.0617149151221383
    Two-Electron Energy =                 462.0570430897773804
    DFT Exchange-Correlation Energy =       0.0000000000000000
    Empirical Dispersion Energy =           0.0000000000000000
    PCM Polarization Energy =               0.0000000000000000
    EFP Energy =                            0.0000000000000000
    Total Energy =                       -344.5939133315680465
    Molecular point group: c1
  Basis Set: 6-31G*
  Basis Set:

  -Total Gradient:
     Atom            X                  Y                   Z
    ------   -----------------  -----------------  -----------------
       1       -0.000025415512     0.000006328125    -0.002541555093
       2       -0.000274579668     0.000285961322     0.002395625442
       3        0.000894619307    -0.000957425239     0.001732190809
       4       -0.000031919817    -0.000063028769     0.000014637892
       5       -0.000567071999     0.000718101414    -0.001607740527
       6       -0.000006519128     0.000003936171     0.000003039671
       7        0.000051632942     0.000030114936    -0.000041512949
       8        0.000003251081    -0.000005331656     0.000010863511
       9       -0.000019053296    -0.000055072145    -0.000012355445
      10        0.000002314762    -0.000009306752     0.000002458273
      11       -0.000032636453     0.000030704886     0.000042480986
      12       -0.000004483231     0.000009968072     0.000003771465
      13        0.000010966118    -0.000003414778     0.000000663997
      14       -0.000001882291    -0.000001167020    -0.000008060776
      15        0.000001459096    -0.000002044513     0.000006582864
      16       -0.000000681912     0.000011675947    -0.000001090120

  **** Optimization is complete! (in 5 steps) ****
    Final optimized geometry and variables:
    Molecular point group: c1

    Geometry (in Angstrom), charge = 0, multiplicity = 1:

    H           -3.011101111871    -0.708158343818     0.222703742456
    O           -2.215685386533    -1.221775443866     0.216001013151
    C           -1.127166716794    -0.410057554787     0.203677769178
    C           -1.139770287356     0.843926836470     0.787777744029
    C            0.018140896982    -0.882402222412    -0.421952604054
    H           -2.028201948381     1.206146965084     1.276116135833
    C            0.008988286944     1.619910382303     0.741445889904
    H           -0.011999687584    -1.856712312924    -0.874642623513
    C            1.169874856521    -0.113356634584    -0.456858047021
    H            0.003779853398     2.596871965401     1.191488050835
    C            1.155151365913     1.151018425584     0.129570431770
    C            2.426730378274    -0.637977464537    -1.111270181690
    H            2.038836603355     1.764210576850     0.103151962537
    H            2.905769940733     0.128626923412    -1.711018487958
    H            2.214303243557    -1.484078659765    -1.754007725046
    H            3.143804282908    -0.962807523020    -0.362465405610

  Mulliken Charges: (a.u.)
   Center  Symbol    Alpha    Beta     Spin     Total
       1     H     0.27228  0.27228  0.00000  0.45545
       2     O     4.38180  4.38180  0.00000 -0.76360
       3     C     2.79473  2.79473  0.00000  0.41055
       4     C     3.14410  3.14410  0.00000 -0.28820
       5     C     3.13895  3.13895  0.00000 -0.27790
       6     H     0.40333  0.40333  0.00000  0.19333
       7     C     3.08852  3.08852  0.00000 -0.17704
       8     H     0.39444  0.39444  0.00000  0.21111
       9     C     2.97030  2.97030  0.00000  0.05941
      10     H     0.39885  0.39885  0.00000  0.20229
      11     C     3.12241  3.12241  0.00000 -0.24482
      12     C     3.25451  3.25451  0.00000 -0.50903
      13     H     0.40319  0.40319  0.00000  0.19362
      14     H     0.41212  0.41212  0.00000  0.17577
      15     H     0.41170  0.41170  0.00000  0.17661
      16     H     0.40877  0.40877  0.00000  0.18246

   Total alpha = 29.00000, Total beta = 29.00000, Total charge =  0.00000
