  ==> Input File <==

--------------------------------------------------------------------------
set {
	reference rhf
	basis 6-31G*
}

set_num_threads( 4 )
memory 2 gb

molecule MOL {
0 1

H	 -3.135461	 -1.215070	 0.001379
O	 -2.310168	 -0.871793	 -0.309793
C	 -2.026376	 0.340750	 0.341611
C	 -0.673256	 0.843270	 -0.132153
H	 -2.792215	 1.080697	 0.115987
H	 -2.013526	 0.200402	 1.421792
C	 0.486613	 -0.083066	 0.235839
H	 -0.715586	 0.970948	 -1.210718
H	 -0.508072	 1.829858	 0.297090
C	 1.806126	 0.323821	 -0.422297
H	 0.234613	 -1.099150	 -0.049788
H	 0.612277	 -0.087505	 1.317980
C	 2.966478	 -0.598449	 -0.049909
H	 1.682258	 0.327878	 -1.503203
H	 2.053091	 1.345485	 -0.140063
H	 2.764211	 -1.622340	 -0.350951
H	 3.888023	 -0.287338	 -0.532517
H	 3.138658	 -0.598434	 1.022875

	symmetry c1
}
set optking {
	frozen_dihedral = ("
		10 7 4 8
	")
}

ee = optimize('scf')
oeprop('DIPOLE', 'QUADRUPOLE', 'MULLIKEN_CHARGES')
f=open( 'psi4out.xyz', 'w' )
f.write( "18  " )
f.write( str(ee) + "\n" )
f.write( MOL.save_string_xyz() )
f.close()
--------------------------------------------------------------------------

    Molecular point group: c1
  Charge       = 0
  Multiplicity = 1
  Basis Set: 6-31G*
  Basis Set:
  @DF-RHF Final Energy:  -271.17971692960361
    Total Energy =                       -271.1797169296036145
    Molecular point group: c1
  Basis Set: 6-31G*
  Basis Set:
  Basis Set: 6-31G*
  Basis Set:
  @DF-RHF Final Energy:  -271.17972762477331
    Total Energy =                       -271.1797276247731361
  Basis Set: 6-31G*
  Basis Set:
  Basis Set: 6-31G*
  Basis Set:
  @DF-RHF Final Energy:  -271.17974524673070
    Total Energy =                       -271.1797452467308176
  Basis Set: 6-31G*
  Basis Set:
  Basis Set: 6-31G*
  Basis Set:
  @DF-RHF Final Energy:  -271.17974674880054
    Total Energy =                       -271.1797467488004258
  Basis Set: 6-31G*
  Basis Set:
  Charge       = 0
  Multiplicity = 1
  Basis Set: 6-31G*
  Basis Set:

    Orbital Energies (a.u.)
    -----------------------

    Doubly Occupied:

       1A    -20.553142     2A    -11.268176     3A    -11.211935
       4A    -11.210526     5A    -11.206292     6A    -11.204377
       7A     -1.359848     8A     -1.074586     9A     -1.008635
      10A     -0.913053    11A     -0.817544    12A     -0.783879
      13A     -0.705401    14A     -0.639516    15A     -0.626980
      16A     -0.580093    17A     -0.570237    18A     -0.558206
      19A     -0.522285    20A     -0.498952    21A     -0.489021
      22A     -0.467468    23A     -0.458176    24A     -0.447913
      25A     -0.428550

  @DF-RHF Final Energy:  -271.17974744100388

   => Energetics <=

    Nuclear Repulsion Energy =            249.1132140236804560
    One-Electron Energy =                -861.3763407579393743
    Two-Electron Energy =                 341.0833792932550068
    DFT Exchange-Correlation Energy =       0.0000000000000000
    Empirical Dispersion Energy =           0.0000000000000000
    PCM Polarization Energy =               0.0000000000000000
    EFP Energy =                            0.0000000000000000
    Total Energy =                       -271.1797474410038831
    Molecular point group: c1
  Basis Set: 6-31G*
  Basis Set:

  -Total Gradient:
     Atom            X                  Y                   Z
    ------   -----------------  -----------------  -----------------
       1       -0.000003197529    -0.000001571444    -0.000003024575
       2       -0.000024769803     0.000024651167    -0.000008037491
       3        0.000048602970    -0.000031831740     0.000021273937
       4       -0.001179120654    -0.001666843851    -0.000445232862
       5       -0.000000706858    -0.000019347901    -0.000015123440
       6       -0.000004848263     0.000013215780     0.000003810783
       7        0.000501831581     0.001091226052     0.001145416785
       8        0.000899447368     0.001145742471     0.000093084730
       9       -0.000007771917     0.000013840171     0.000021463052
      10       -0.000222081447    -0.000578251149    -0.000819981985
      11       -0.000013806105    -0.000006165206     0.000029034340
      12        0.000002304420     0.000013820908    -0.000015744938
      13       -0.000005218865    -0.000000141383     0.000001726504
      14       -0.000002740474     0.000000370622    -0.000002885787
      15        0.000013486359    -0.000000541929    -0.000004930067
      16       -0.000000835626     0.000000450552     0.000002100929
      17       -0.000001041148     0.000000904242    -0.000001914802
      18        0.000000465996     0.000000472639    -0.000001035111

  **** Optimization is complete! (in 5 steps) ****
    Final optimized geometry and variables:
    Molecular point group: c1

    Geometry (in Angstrom), charge = 0, multiplicity = 1:

    H           -3.137963693181    -1.167079392135     0.058993148324
    O           -2.315128546864    -0.825324580622    -0.260298147055
    C           -2.012508890284     0.376045369794     0.403327521731
    C           -0.660303628715     0.872469702108    -0.078458749149
    H           -2.773860371964     1.125583075154     0.195305981594
    H           -1.989378707869     0.222082494580     1.481507588819
    C            0.500573383123    -0.055020567208     0.285633962901
    H           -0.703571528986     1.007157658747    -1.156037210148
    H           -0.488710653443     1.858777911370     0.349387975019
    C            1.820438162834     0.356239205494    -0.368975639037
    H            0.252307286537    -1.068164622478    -0.014184917815
    H            0.621370316972    -0.071678370128     1.368006219223
    C            2.984991521905    -0.555972006489     0.014687854607
    H            1.699246619557     0.350564758508    -1.449883848240
    H            2.060671755219     1.381788871390    -0.094293956422
    H            2.787874556044    -1.584200733433    -0.275004171878
    H            3.905303077895    -0.245852871224    -0.470849248548
    H            3.156532672501    -0.543029120956     1.087465399161

  Mulliken Charges: (a.u.)
   Center  Symbol    Alpha    Beta     Spin     Total
       1     H     0.28056  0.28056  0.00000  0.43887
       2     O     4.36951  4.36951  0.00000 -0.73902
       3     C     2.99727  2.99727  0.00000  0.00545
       4     C     3.16028  3.16028  0.00000 -0.32055
       5     H     0.42917  0.42917  0.00000  0.14165
       6     H     0.43268  0.43268  0.00000  0.13465
       7     C     3.15423  3.15423  0.00000 -0.30845
       8     H     0.41502  0.41502  0.00000  0.16995
       9     H     0.42407  0.42407  0.00000  0.15186
      10     C     3.15189  3.15189  0.00000 -0.30377
      11     H     0.40765  0.40765  0.00000  0.18470
      12     H     0.42741  0.42741  0.00000  0.14517
      13     C     3.23900  3.23900  0.00000 -0.47800
      14     H     0.42184  0.42184  0.00000  0.15633
      15     H     0.42542  0.42542  0.00000  0.14916
      16     H     0.42090  0.42090  0.00000  0.15821
      17     H     0.42033  0.42033  0.00000  0.15935
      18     H     0.42278  0.42278  0.00000  0.15443

   Total alpha = 25.00000, Total beta = 25.00000, Total charge = -0.00000
