  ==> Input File <==

--------------------------------------------------------------------------
set {
	reference rhf
	basis 6-31G*
}

set_num_threads( 1 )
memory 2 gb

molecule MOL {
0 1

H	 -1.836216	 1.387520	 -0.000064
C	 -1.301823	 0.443321	 -0.000031
O	 -0.003969	 0.658512	 0.000451
O	 -1.829879	 -0.616434	 -0.000857
C	 0.607513	 0.983778	 -1.247539
C	 2.085446	 1.183687	 -0.990495
H	 0.143464	 1.877953	 -1.640512
H	 0.426246	 0.178041	 -1.945554
H	 2.247580	 1.988995	 -0.283228
H	 2.589709	 1.434159	 -1.917973
H	 2.531885	 0.280929	 -0.589735

	symmetry c1
}
set optking {
	frozen_dihedral = ("
		7 5 3 2
	")
}

ee = energy('scf')
oeprop('DIPOLE', 'QUADRUPOLE', 'MULLIKEN_CHARGES')
f=open( 'psi4out.xyz', 'w' )
f.write( "11  " )
f.write( str(ee) + "\n" )
f.write( MOL.save_string_xyz() )
f.close()
--------------------------------------------------------------------------

    Molecular point group: c1

    Geometry (in Angstrom), charge = 0, multiplicity = 1:

       Center              X                  Y                   Z               Mass
    ------------   -----------------  -----------------  -----------------  -----------------
           H         -1.748581331633     0.857972476538     0.449580635233     1.007825032070
           C         -1.214188331633    -0.086226523462     0.449613635233    12.000000000000
           O          0.083665668367     0.128964476538     0.450095635233    15.994914619560
           O         -1.742244331633    -1.145981523462     0.448787635233    15.994914619560
           C          0.695147668367     0.454230476538    -0.797894364767    12.000000000000
           C          2.173080668367     0.654139476538    -0.540850364767    12.000000000000
           H          0.231098668367     1.348405476538    -1.190867364767     1.007825032070
           H          0.513880668367    -0.351506523462    -1.495909364767     1.007825032070
           H          2.335214668367     1.459447476538     0.166416635233     1.007825032070
           H          2.677343668367     0.904611476538    -1.468328364767     1.007825032070
           H          2.619519668367    -0.248618523462    -0.140090364767     1.007825032070

  Charge       = 0
  Multiplicity = 1
  Basis Set: 6-31G*
  Basis Set:

    Orbital Energies (a.u.)
    -----------------------

    Doubly Occupied:

       1A    -20.594301     2A    -20.568131     3A    -11.379416
       4A    -11.306347     5A    -11.231949     6A     -1.469955
       7A     -1.378720     8A     -1.054522     9A     -0.892182
      10A     -0.833396    11A     -0.742305    12A     -0.689849
      13A     -0.650109    14A     -0.638243    15A     -0.564933
      16A     -0.544255    17A     -0.537929    18A     -0.499634
      19A     -0.467520    20A     -0.452448

  @DF-RHF Final Energy:  -266.80822630014717

   => Energetics <=

    Nuclear Repulsion Energy =            177.0708393360962987
    One-Electron Energy =                -714.7659811929655689
    Two-Electron Energy =                 270.8869155567222151
    DFT Exchange-Correlation Energy =       0.0000000000000000
    Empirical Dispersion Energy =           0.0000000000000000
    PCM Polarization Energy =               0.0000000000000000
    EFP Energy =                            0.0000000000000000
    Total Energy =                       -266.8082263001469983

  Mulliken Charges: (a.u.)
   Center  Symbol    Alpha    Beta     Spin     Total
       1     H     0.42968  0.42968  0.00000  0.14064
       2     C     2.73090  2.73090  0.00000  0.53819
       3     O     4.29660  4.29660  0.00000 -0.59320
       4     O     4.23306  4.23306  0.00000 -0.46613
       5     C     3.00533  3.00533  0.00000 -0.01066
       6     C     3.24736  3.24736  0.00000 -0.49471
       7     H     0.41965  0.41965  0.00000  0.16070
       8     H     0.40872  0.40872  0.00000  0.18256
       9     H     0.40854  0.40854  0.00000  0.18292
      10     H     0.41570  0.41570  0.00000  0.16860
      11     H     0.40445  0.40445  0.00000  0.19109

   Total alpha = 20.00000, Total beta = 20.00000, Total charge = -0.00000
