  ==> Input File <==

--------------------------------------------------------------------------
set {
	reference rhf
	basis 6-31G*
}

set_num_threads( 1 )
memory 2 gb

molecule MOL {
0 1

H	 1.940372	 -1.201121	 -0.179776
C	 1.951159	 -0.223429	 0.317018
C	 0.692068	 0.589600	 0.160137
O	 2.910557	 0.126676	 0.924564
C	 -0.558097	 -0.297372	 0.091132
H	 0.791645	 1.202255	 -0.728243
H	 0.616171	 1.253469	 1.020572
C	 -1.850991	 0.512573	 -0.019058
H	 -0.476753	 -0.965681	 -0.762987
H	 -0.604799	 -0.930658	 0.975228
C	 -3.096943	 -0.368295	 -0.099594
H	 -1.800724	 1.150330	 -0.898172
H	 -1.931651	 1.177355	 0.838044
H	 -3.060452	 -1.020287	 -0.967456
H	 -3.996858	 0.233488	 -0.175704
H	 -3.191959	 -0.995686	 0.782074

	symmetry c1
}
set optking {
	frozen_dihedral = ("
		9 5 8 12,
		6 3 5 9
	")
}

ee = energy('scf')
oeprop('DIPOLE', 'QUADRUPOLE', 'MULLIKEN_CHARGES')
f=open( 'psi4out.xyz', 'w' )
f.write( "16  " )
f.write( str(ee) + "\n" )
f.write( MOL.save_string_xyz() )
f.close()
--------------------------------------------------------------------------

    Molecular point group: c1

    Geometry (in Angstrom), charge = 0, multiplicity = 1:

       Center              X                  Y                   Z               Mass
    ------------   -----------------  -----------------  -----------------  -----------------
           H          1.935797003863    -1.253237178256    -0.413144527400     1.007825032070
           C          1.946584003863    -0.275545178256     0.083649472600    12.000000000000
           C          0.687493003863     0.537483821744    -0.073231527400    12.000000000000
           O          2.905982003863     0.074559821744     0.691195472600    15.994914619560
           C         -0.562671996137    -0.349488178256    -0.142236527400    12.000000000000
           H          0.787070003863     1.150138821744    -0.961611527400     1.007825032070
           H          0.611596003863     1.201352821744     0.787203472600     1.007825032070
           C         -1.855565996137     0.460456821744    -0.252426527400    12.000000000000
           H         -0.481327996137    -1.017797178256    -0.996355527400     1.007825032070
           H         -0.609373996137    -0.982774178256     0.741859472600     1.007825032070
           C         -3.101517996137    -0.420411178256    -0.332962527400    12.000000000000
           H         -1.805298996137     1.098213821744    -1.131540527400     1.007825032070
           H         -1.936225996137     1.125238821744     0.604675472600     1.007825032070
           H         -3.065026996137    -1.072403178256    -1.200824527400     1.007825032070
           H         -4.001432996137     0.181371821744    -0.409072527400     1.007825032070
           H         -3.196533996137    -1.047802178256     0.548705472600     1.007825032070

  Charge       = 0
  Multiplicity = 1
  Basis Set: 6-31G*
  Basis Set:

    Orbital Energies (a.u.)
    -----------------------

    Doubly Occupied:

       1A    -20.562172     2A    -11.326893     3A    -11.235851
       4A    -11.235248     5A    -11.229374     6A    -11.218599
       7A     -1.402211     8A     -1.096911     9A     -1.019198
      10A     -0.905000    11A     -0.811834    12A     -0.795662
      13A     -0.672646    14A     -0.651549    15A     -0.631472
      16A     -0.604152    17A     -0.586317    18A     -0.545745
      19A     -0.531954    20A     -0.501279    21A     -0.487547
      22A     -0.484326    23A     -0.479576    24A     -0.409497

  @DF-RHF Final Energy:  -270.01904281807549

   => Energetics <=

    Nuclear Repulsion Energy =            228.4562738086825959
    One-Electron Energy =                -818.1005981612224787
    Two-Electron Energy =                 319.6252815344643068
    DFT Exchange-Correlation Energy =       0.0000000000000000
    Empirical Dispersion Energy =           0.0000000000000000
    PCM Polarization Energy =               0.0000000000000000
    EFP Energy =                            0.0000000000000000
    Total Energy =                       -270.0190428180756044

  Mulliken Charges: (a.u.)
   Center  Symbol    Alpha    Beta     Spin     Total
       1     H     0.43139  0.43139  0.00000  0.13722
       2     C     2.83050  2.83050  0.00000  0.33900
       3     C     3.20836  3.20836  0.00000 -0.41672
       4     O     4.23903  4.23903  0.00000 -0.47806
       5     C     3.16538  3.16538  0.00000 -0.33076
       6     H     0.40201  0.40201  0.00000  0.19598
       7     H     0.39991  0.39991  0.00000  0.20018
       8     C     3.15159  3.15159  0.00000 -0.30318
       9     H     0.41966  0.41966  0.00000  0.16068
      10     H     0.41579  0.41579  0.00000  0.16842
      11     C     3.24025  3.24025  0.00000 -0.48049
      12     H     0.42049  0.42049  0.00000  0.15901
      13     H     0.41895  0.41895  0.00000  0.16210
      14     H     0.42044  0.42044  0.00000  0.15911
      15     H     0.41641  0.41641  0.00000  0.16717
      16     H     0.41983  0.41983  0.00000  0.16035

   Total alpha = 24.00000, Total beta = 24.00000, Total charge = -0.00000
