                              Psi4 1.0.54 Driver

  ==> Input File <==

--------------------------------------------------------------------------
set {
	reference rhf
	basis cc-pvtz
}

set_num_threads( 4 )
memory 2 gb

molecule MOL {
0 1

H	 3.721907	 -0.933076	 -0.066039
O	 2.824271	 -1.154299	 0.131461
C	 2.076458	 -0.067370	 -0.038225
C	 0.626018	 -0.337582	 0.258241
O	 2.538288	 0.965419	 -0.381593
C	 -0.267326	 0.883135	 0.076490
H	 0.325620	 -1.161483	 -0.378003
H	 0.574537	 -0.713685	 1.275261
C	 -1.726822	 0.642622	 0.463839
H	 -0.210803	 1.217591	 -0.953497
H	 0.129920	 1.693110	 0.675679
C	 -2.480891	 -0.340606	 -0.429852
H	 -2.243098	 1.597649	 0.438609
H	 -1.776542	 0.301208	 1.495542
C	 -1.568711	 -1.050885	 -1.424792
H	 -2.978286	 -1.079141	 0.193204
H	 -3.263662	 0.174826	 -0.977167
H	 -2.127019	 -1.743197	 -2.044211
H	 -0.795214	 -1.613726	 -0.913313
H	 -1.078726	 -0.340336	 -2.082204

	symmetry c1
}
set optking {
	frozen_dihedral = ("
		16 12 9 6
	")
}

ee,wfn = optimize('scf', return_wfn=True)
oeprop( wfn, 'DIPOLE', 'QUADRUPOLE', 'MULLIKEN_CHARGES')
f=open( 'psi4out.xyz', 'w' )
f.write( "20  " )
f.write( str(ee) + "\n" )
f.write( MOL.save_string_xyz() )
f.close()
--------------------------------------------------------------------------

    Molecular point group: c1
  Charge       = 0
  Multiplicity = 1
  Basis Set: CC-PVTZ
  Basis Set:
  @DF-RHF Final Energy:  -384.05840214519964
    Total Energy =                       -384.0584021451995795
    Molecular point group: c1
  Basis Set: CC-PVTZ
  Basis Set:
  Basis Set: CC-PVTZ
  Basis Set:
  @DF-RHF Final Energy:  -384.07718226173512
    Total Energy =                       -384.0771822617352882
  Basis Set: CC-PVTZ
  Basis Set:
  Basis Set: CC-PVTZ
  Basis Set:
  @DF-RHF Final Energy:  -384.08114850705113
    Total Energy =                       -384.0811485070513527
  Basis Set: CC-PVTZ
  Basis Set:
  Basis Set: CC-PVTZ
  Basis Set:
  @DF-RHF Final Energy:  -384.07922613699304
    Total Energy =                       -384.0792261369928156
  Basis Set: CC-PVTZ
  Basis Set:
  @DF-RHF Final Energy:  -384.08248049697488
    Total Energy =                       -384.0824804969751085
  @DF-RHF Final Energy:  -384.08285842666515
    Total Energy =                       -384.0828584266649841
  @DF-RHF Final Energy:  -384.08293850990850
    Total Energy =                       -384.0829385099091269
  @DF-RHF Final Energy:  -384.08296049194297
    Total Energy =                       -384.0829604919429130
  Basis Set: CC-PVTZ
  Basis Set:
  @DF-RHF Final Energy:  -384.08296815220700
    Total Energy =                       -384.0829681522067176
  Basis Set: CC-PVTZ
  Basis Set:
  Basis Set: CC-PVTZ
  Basis Set:
  @DF-RHF Final Energy:  -384.08297052062301
    Total Energy =                       -384.0829705206234621
  Basis Set: CC-PVTZ
  Basis Set:
  Basis Set: CC-PVTZ
  Basis Set:
  @DF-RHF Final Energy:  -384.08297180179170
    Total Energy =                       -384.0829718017917003
  Basis Set: CC-PVTZ
  Basis Set:
  Charge       = 0
  Multiplicity = 1
  Basis Set: CC-PVTZ
  Basis Set:

    Orbital Energies (a.u.)
    -----------------------

    Doubly Occupied:

       1A    -20.603600     2A    -20.540242     3A    -11.373011
       4A    -11.237805     5A    -11.220736     6A    -11.219253
       7A    -11.218722     8A    -11.211342     9A     -1.477133
      10A     -1.368649    11A     -1.093281    12A     -1.037411
      13A     -0.962977    14A     -0.882672    15A     -0.812020
      16A     -0.769984    17A     -0.703125    18A     -0.690488
      19A     -0.669158    20A     -0.631871    21A     -0.620913
      22A     -0.589363    23A     -0.570503    24A     -0.560339
      25A     -0.536520    26A     -0.512033    27A     -0.509987
      28A     -0.483964    29A     -0.468888    30A     -0.457949
      31A     -0.455039    32A     -0.443228

  @DF-RHF Final Energy:  -384.08297205105009

   => Energetics <=

    Nuclear Repulsion Energy =            383.4085545053294481
    One-Electron Energy =               -1283.1186374585715839
    Two-Electron Energy =                 515.6271109021920438
    DFT Exchange-Correlation Energy =       0.0000000000000000
    Empirical Dispersion Energy =           0.0000000000000000
    PCM Polarization Energy =               0.0000000000000000
    EFP Energy =                            0.0000000000000000
    Total Energy =                       -384.0829720510500920
    Molecular point group: c1
  Basis Set: CC-PVTZ
  Basis Set:

  -Total Gradient:
     Atom            X                  Y                   Z
    ------   -----------------  -----------------  -----------------
       1        0.000000065613     0.000000026763     0.000000668334
       2        0.000002538037    -0.000012887454     0.000005462742
       3        0.000006266206     0.000043282711    -0.000027158077
       4        0.000007439938    -0.000015415438     0.000009264872
       5       -0.000000238221    -0.000014546856     0.000010126506
       6        0.000092621917    -0.000200249292     0.000159969911
       7       -0.000005858294    -0.000007866323    -0.000007177072
       8       -0.000005852551     0.000000787004     0.000009123711
       9       -0.000060991245     0.000263033192    -0.000234398278
      10        0.000002802453    -0.000003117610    -0.000005405354
      11       -0.000002561011     0.000001685752    -0.000005912144
      12       -0.000316225386     0.000150567304     0.000117715243
      13       -0.000003949986     0.000000273955     0.000002116905
      14        0.000000653154     0.000000361390    -0.000001470148
      15        0.000001050125    -0.000018959774    -0.000019194985
      16        0.000281539623    -0.000203273356    -0.000027722000
      17       -0.000000979123     0.000001814698     0.000004688183
      18        0.000006047315     0.000005782437     0.000004612398
      19       -0.000005663450     0.000009370098    -0.000000915431
      20        0.000001294883    -0.000000669202     0.000005604684

  **** Optimization is complete! (in 12 steps) ****
    Final optimized geometry and variables:
    Molecular point group: c1

    Geometry (in Angstrom), charge = 0, multiplicity = 1:

    H            3.525823288845    -0.597023631021     0.638399631941
    O            2.633364410037    -0.859088429571     0.807417051456
    C            1.824160871460     0.110543124400     0.389423632798
    C            0.377527594610    -0.230669102136     0.625788444891
    O            2.235738809774     1.104164795848    -0.101972627146
    C           -0.585825916398     0.857392439445     0.165518603919
    H            0.194480751087    -1.180305036958     0.140261107949
    H            0.266752602139    -0.418299225884     1.689063638719
    C           -2.062849868413     0.532494600926     0.425676319661
    H           -0.412795246639     1.081411133994    -0.878357541611
    H           -0.339037111484     1.765385732723     0.702153289971
    C           -2.826439405671    -0.373360402349    -0.582273759147
    H           -2.592983087119     1.475612625022     0.482125796781
    H           -2.142804904024     0.100263907394     1.418364887027
    C           -2.040463197446    -1.027908317336    -1.718490080101
    H           -3.331128433126    -1.157915520464    -0.029413091220
    H           -3.615554280479     0.217555303945    -1.033603698240
    H           -2.722139182833    -1.574425864223    -2.360108201957
    H           -1.304453808935    -1.736456173046    -1.360370119561
    H           -1.530785163388    -0.299503888752    -2.336842726838

  Mulliken Charges: (a.u.)
   Center  Symbol    Alpha    Beta     Spin     Total
       1     H     0.38244  0.38244  0.00000  0.23513
       2     O     4.16098  4.16098  0.00000 -0.32197
       3     C     2.80354  2.80354  0.00000  0.39292
       4     C     3.11064  3.11064  0.00000 -0.22129
       5     O     4.19126  4.19126  0.00000 -0.38253
       6     C     3.09935  3.09935  0.00000 -0.19870
       7     H     0.43658  0.43658  0.00000  0.12684
       8     H     0.43653  0.43653  0.00000  0.12694
       9     C     3.11002  3.11002  0.00000 -0.22004
      10     H     0.44205  0.44205  0.00000  0.11590
      11     H     0.43695  0.43695  0.00000  0.12611
      12     C     3.08666  3.08666  0.00000 -0.17332
      13     H     0.44169  0.44169  0.00000  0.11661
      14     H     0.45324  0.45324  0.00000  0.09353
      15     C     3.16303  3.16303  0.00000 -0.32605
      16     H     0.45021  0.45021  0.00000  0.09958
      17     H     0.44997  0.44997  0.00000  0.10007
      18     H     0.44115  0.44115  0.00000  0.11770
      19     H     0.45407  0.45407  0.00000  0.09187
      20     H     0.44965  0.44965  0.00000  0.10070

   Total alpha = 32.00000, Total beta = 32.00000, Total charge = -0.00000

*** Psi4 exiting successfully. Buy a developer a beer!
