  ==> Input File <==

--------------------------------------------------------------------------
set {
	reference rhf
	basis cc-pvtz
}

set_num_threads( 4 )
memory 2 gb

molecule MOL {
0 1

O	 2.945000	 1.390000	 -0.001000
C	 2.926000	 0.197000	 -0.000000
C	 1.629000	 -0.592000	 -0.001000
C	 4.207000	 -0.612000	 0.001000
C	 0.373000	 0.275000	 -0.000000
H	 1.641000	 -1.252000	 -0.867000
H	 1.641000	 -1.253000	 0.865000
C	 -0.912000	 -0.554000	 -0.001000
H	 0.392000	 0.928000	 -0.867000
H	 0.392000	 0.927000	 0.868000
C	 -2.177000	 0.305000	 0.001000
H	 -0.923000	 -1.207000	 -0.872000
H	 -0.922000	 -1.209000	 0.869000
C	 -3.467000	 -0.517000	 -0.001000
H	 -2.168000	 0.960000	 -0.869000
H	 -2.168000	 0.958000	 0.872000
C	 -4.727000	 0.348000	 0.001000
H	 -3.478000	 -1.168000	 -0.872000
H	 -3.478000	 -1.171000	 0.869000
H	 -4.763000	 0.990000	 -0.875000
H	 -5.625000	 -0.263000	 -0.000000
H	 -4.763000	 0.987000	 0.879000
H	 4.248000	 -1.257000	 -0.872000
H	 5.059000	 0.054000	 -0.001000
H	 4.249000	 -1.252000	 0.877000

	symmetry c1
}
ee = optimize('scf')
oeprop('DIPOLE', 'QUADRUPOLE', 'MULLIKEN_CHARGES')
f=open( 'psi4out.xyz', 'w' )
f.write( "25  " )
f.write( str(ee) + "\n" )
f.write( MOL.save_string_xyz() )
f.close()
--------------------------------------------------------------------------

    Molecular point group: c1
  Charge       = 0
  Multiplicity = 1
  Basis Set: CC-PVTZ
  Basis Set:
  @DF-RHF Final Energy:  -387.27451792975546
    Total Energy =                       -387.2745179297553477
    Molecular point group: c1
  Basis Set: CC-PVTZ
  Basis Set:
  Basis Set: CC-PVTZ
  Basis Set:
  @DF-RHF Final Energy:  -387.27465830946176
    Total Energy =                       -387.2746583094617563
  Basis Set: CC-PVTZ
  Basis Set:
  Basis Set: CC-PVTZ
  Basis Set:
  @DF-RHF Final Energy:  -387.27377132479427
    Total Energy =                       -387.2737713247944384
  Basis Set: CC-PVTZ
  Basis Set:
  Basis Set: CC-PVTZ
  Basis Set:
  @DF-RHF Final Energy:  -387.27467060356099
    Total Energy =                       -387.2746706035610487
  Basis Set: CC-PVTZ
  Basis Set:
  Charge       = 0
  Multiplicity = 1
  Basis Set: CC-PVTZ
  Basis Set:

    Orbital Energies (a.u.)
    -----------------------

    Doubly Occupied:

       1A    -20.538873     2A    -11.320510     3A    -11.230168
       4A    -11.226584     5A    -11.215245     6A    -11.214623
       7A    -11.213544     8A    -11.211520     9A    -11.206455
      10A     -1.398887    11A     -1.095213    12A     -1.057688
      13A     -1.015599    14A     -0.970210    15A     -0.891566
      16A     -0.814756    17A     -0.791429    18A     -0.731015
      19A     -0.662916    20A     -0.654336    21A     -0.633237
      22A     -0.626883    23A     -0.596841    24A     -0.585341
      25A     -0.567720    26A     -0.559839    27A     -0.541465
      28A     -0.527238    29A     -0.513197    30A     -0.491763
      31A     -0.490267    32A     -0.473693    33A     -0.463994
      34A     -0.462994    35A     -0.452831    36A     -0.401436

  @DF-RHF Final Energy:  -387.27467212943714

   => Energetics <=

    Nuclear Repulsion Energy =            439.1244563631242954
    One-Electron Energy =               -1395.0984980072639701
    Two-Electron Energy =                 568.6993695147027665
    DFT Exchange-Correlation Energy =       0.0000000000000000
    Empirical Dispersion Energy =           0.0000000000000000
    PCM Polarization Energy =               0.0000000000000000
    EFP Energy =                            0.0000000000000000
    Total Energy =                       -387.2746721294369081
    Molecular point group: c1
  Basis Set: CC-PVTZ
  Basis Set:

  -Total Gradient:
     Atom            X                  Y                   Z
    ------   -----------------  -----------------  -----------------
       1       -0.000002379728     0.000088116699    -0.000008884142
       2        0.000004423914    -0.000131652304     0.000028426156
       3        0.000042618870     0.000028815333    -0.000014083653
       4       -0.000010588110     0.000038676697    -0.000006059834
       5       -0.000012797271     0.000029760096     0.000009284485
       6       -0.000012024166    -0.000009666884     0.000000682900
       7       -0.000003759002     0.000006108987    -0.000007730541
       8        0.000018827723    -0.000018419332    -0.000002714079
       9        0.000001424769    -0.000009788067     0.000009234059
      10        0.000003623840    -0.000011406707    -0.000010661529
      11       -0.000000518757     0.000019226840     0.000004473689
      12        0.000000099907     0.000001270014     0.000006192951
      13       -0.000000579342     0.000008104705    -0.000006538743
      14       -0.000007869330    -0.000014369984    -0.000000772513
      15        0.000000130142    -0.000007502344     0.000008300897
      16       -0.000000907694    -0.000004606055    -0.000005232512
      17       -0.000012191506     0.000007833257    -0.000000559322
      18        0.000000748373     0.000000244975     0.000004800995
      19        0.000003023357     0.000007297309    -0.000008644867
      20        0.000000005585    -0.000005328182     0.000006355193
      21        0.000006318182     0.000006983397    -0.000000797884
      22       -0.000000515365    -0.000005152853    -0.000004954949
      23        0.000008096405    -0.000015787681     0.000002666538
      24       -0.000030012545    -0.000002385456     0.000005139758
      25        0.000004801752    -0.000006372458    -0.000007923053

  **** Optimization is complete! (in 5 steps) ****
    Final optimized geometry and variables:
    Molecular point group: c1

    Geometry (in Angstrom), charge = 0, multiplicity = 1:

    O            2.868453299552     1.353348539608    -0.000734376655
    C            2.841258645037     0.166179252516    -0.000295260510
    C            1.542793659264    -0.614730501831    -0.000852498555
    C            4.113372294219    -0.651103686006     0.000743344520
    C            0.288398119004     0.247429114156     0.000314162936
    H            1.557170901752    -1.273139030158    -0.866507744362
    H            1.557484274864    -1.274998779535     0.863344120194
    C           -0.993088918077    -0.581367295058    -0.000217304221
    H            0.305152389268     0.900561617699    -0.864700669453
    H            0.305567205201     0.898804242384     0.866655952267
    C           -2.258482617180     0.271339736460     0.000669270849
    H           -1.002279901258    -1.233920360827    -0.870483708667
    H           -1.002061438532    -1.235367319823     0.868957876746
    C           -3.544440732267    -0.550271096020    -0.000253332147
    H           -2.250545526159     0.925249281923    -0.867922877701
    H           -2.250598157152     0.923422704721     0.870641854950
    C           -4.804551582122     0.308746643313     0.000555616853
    H           -3.553737089480    -1.201524237180    -0.870151036823
    H           -3.553831122766    -1.203282308405     0.868313070809
    H           -4.842049719090     0.949077265314    -0.874436303562
    H           -5.698403858957    -0.304480055954    -0.000253895617
    H           -4.842277036959     0.947102507666     0.876981730440
    H            4.145310700814    -1.294584812238    -0.871586529387
    H            4.970080068645     0.004978067394    -0.000090696471
    H            4.145223309773    -1.291980046220     0.874987816102

  Mulliken Charges: (a.u.)
   Center  Symbol    Alpha    Beta     Spin     Total
       1     O     4.17078  4.17078  0.00000 -0.34157
       2     C     2.86222  2.86222  0.00000  0.27555
       3     C     3.11400  3.11400  0.00000 -0.22799
       4     C     3.15127  3.15127  0.00000 -0.30253
       5     C     3.08299  3.08299  0.00000 -0.16597
       6     H     0.44560  0.44560  0.00000  0.10881
       7     H     0.44562  0.44562  0.00000  0.10876
       8     C     3.09014  3.09014  0.00000 -0.18027
       9     H     0.44605  0.44605  0.00000  0.10791
      10     H     0.44608  0.44608  0.00000  0.10783
      11     C     3.08613  3.08613  0.00000 -0.17226
      12     H     0.45604  0.45604  0.00000  0.08792
      13     H     0.45604  0.45604  0.00000  0.08793
      14     C     3.08430  3.08430  0.00000 -0.16860
      15     H     0.45381  0.45381  0.00000  0.09239
      16     H     0.45381  0.45381  0.00000  0.09238
      17     C     3.15037  3.15037  0.00000 -0.30075
      18     H     0.45519  0.45519  0.00000  0.08962
      19     H     0.45519  0.45519  0.00000  0.08963
      20     H     0.45478  0.45478  0.00000  0.09043
      21     H     0.44868  0.44868  0.00000  0.10264
      22     H     0.45478  0.45478  0.00000  0.09043
      23     H     0.45041  0.45041  0.00000  0.09918
      24     H     0.43534  0.43534  0.00000  0.12931
      25     H     0.45039  0.45039  0.00000  0.09921

   Total alpha = 36.00000, Total beta = 36.00000, Total charge =  0.00000
