  ==> Input File <==

--------------------------------------------------------------------------
set {
	reference rhf
	basis 6-31G*
}

set_num_threads( 1 )
memory 2 gb

molecule MOL {
0 1

H	 -2.542542	 1.361788	 1.891511
O	 -1.672782	 1.229649	 2.243518
C	 -0.731045	 1.514784	 1.250646
C	 -0.793441	 0.596080	 0.058728
H	 0.241067	 1.432488	 1.723328
H	 -0.825834	 2.545993	 0.912047
C	 -1.530462	 -0.493172	 -0.025500
H	 -0.167732	 0.884841	 -0.771686
H	 -1.092586	 -1.461565	 -0.186463
H	 -2.602122	 -0.450675	 0.050101

	symmetry c1
}
set optking {
	frozen_dihedral = ("
		5 3 2 1,
		5 3 4 7
	")
}

ee = energy('scf')
oeprop('DIPOLE', 'QUADRUPOLE', 'MULLIKEN_CHARGES')
f=open( 'psi4out.xyz', 'w' )
f.write( "10  " )
f.write( str(ee) + "\n" )
f.write( MOL.save_string_xyz() )
f.close()
--------------------------------------------------------------------------

    Molecular point group: c1

    Geometry (in Angstrom), charge = 0, multiplicity = 1:

       Center              X                  Y                   Z               Mass
    ------------   -----------------  -----------------  -----------------  -----------------
           H         -1.328593662787     0.613585762636     0.944978310900     1.007825032070
           O         -0.458833662787     0.481446762636     1.296985310900    15.994914619560
           C          0.482903337213     0.766581762636     0.304113310900    12.000000000000
           C          0.420507337213    -0.152122237364    -0.887804689100    12.000000000000
           H          1.455015337213     0.684285762636     0.776795310900     1.007825032070
           H          0.388114337213     1.797790762636    -0.034485689100     1.007825032070
           C         -0.316513662787    -1.241374237364    -0.972032689100    12.000000000000
           H          1.046216337213     0.136638762636    -1.718218689100     1.007825032070
           H          0.121362337213    -2.209767237364    -1.132995689100     1.007825032070
           H         -1.388173662787    -1.198877237364    -0.896431689100     1.007825032070

  Charge       = 0
  Multiplicity = 1
  Basis Set: 6-31G*
  Basis Set:

    Orbital Energies (a.u.)
    -----------------------

    Doubly Occupied:

       1A    -20.558363     2A    -11.280181     3A    -11.234565
       4A    -11.219692     5A     -1.367247     6A     -1.059288
       7A     -0.929022     8A     -0.769159     9A     -0.688208
      10A     -0.648651    11A     -0.612366    12A     -0.573808
      13A     -0.568012    14A     -0.496997    15A     -0.451191
      16A     -0.300082

  @DF-RHF Final Energy:  -191.83288967220429

   => Energetics <=

    Nuclear Repulsion Energy =            119.2126228180375449
    One-Electron Energy =                -496.5773576032734127
    Two-Electron Energy =                 185.5318451130315793
    DFT Exchange-Correlation Energy =       0.0000000000000000
    Empirical Dispersion Energy =           0.0000000000000000
    PCM Polarization Energy =               0.0000000000000000
    EFP Energy =                            0.0000000000000000
    Total Energy =                       -191.8328896722043169

  Mulliken Charges: (a.u.)
   Center  Symbol    Alpha    Beta     Spin     Total
       1     H     0.28006  0.28006  0.00000  0.43988
       2     O     4.36485  4.36485  0.00000 -0.72969
       3     C     2.99684  2.99684  0.00000  0.00631
       4     C     3.09648  3.09648  0.00000 -0.19296
       5     H     0.40276  0.40276  0.00000  0.19448
       6     H     0.43156  0.43156  0.00000  0.13689
       7     C     3.20035  3.20035  0.00000 -0.40070
       8     H     0.40749  0.40749  0.00000  0.18502
       9     H     0.40458  0.40458  0.00000  0.19083
      10     H     0.41503  0.41503  0.00000  0.16995

   Total alpha = 16.00000, Total beta = 16.00000, Total charge = -0.00000
