  ==> Input File <==

--------------------------------------------------------------------------
set {
	reference rhf
	basis cc-pvtz
}

set_num_threads( 4 )
memory 2 gb

molecule MOL {
0 1

H	 -0.939693	 0.000281	 1.681345
O	 -0.046262	 -0.000157	 1.387678
C	 -0.000837	 0.000006	 -0.025491
C	 1.367681	 0.491616	 -0.493068
C	 -0.276731	 -1.409233	 -0.546138
C	 -1.097286	 0.960815	 -0.464619
H	 1.420458	 0.537016	 -1.574709
H	 2.153612	 -0.174954	 -0.150916
H	 1.567163	 1.479200	 -0.096398
H	 -0.284209	 -1.433397	 -1.629719
H	 0.486596	 -2.101969	 -0.204784
H	 -1.235746	 -1.760868	 -0.186822
H	 -1.141386	 1.029086	 -1.545212
H	 -0.912110	 1.949182	 -0.063306
H	 -2.059289	 0.623160	 -0.100264

	symmetry c1
}
set optking {
	frozen_dihedral = ("
		4 3 2 1
	")
}

ee = optimize('scf')
oeprop('DIPOLE', 'QUADRUPOLE', 'MULLIKEN_CHARGES')
f=open( 'psi4out.xyz', 'w' )
f.write( "15  " )
f.write( str(ee) + "\n" )
f.write( MOL.save_string_xyz() )
f.close()
--------------------------------------------------------------------------

    Molecular point group: c1
  Charge       = 0
  Multiplicity = 1
  Basis Set: CC-PVTZ
  Basis Set:
  @DF-RHF Final Energy:  -232.24425102385698
    Total Energy =                       -232.2442510238570321
    Molecular point group: c1
  Basis Set: CC-PVTZ
  Basis Set:
  Basis Set: CC-PVTZ
  Basis Set:
  @DF-RHF Final Energy:  -232.24587648756255
    Total Energy =                       -232.2458764875624411
  Basis Set: CC-PVTZ
  Basis Set:
  Basis Set: CC-PVTZ
  Basis Set:
  @DF-RHF Final Energy:  -232.24628456278774
    Total Energy =                       -232.2462845627877641
  Basis Set: CC-PVTZ
  Basis Set:
  Basis Set: CC-PVTZ
  Basis Set:
  @DF-RHF Final Energy:  -232.24628752136752
    Total Energy =                       -232.2462875213676057
  Basis Set: CC-PVTZ
  Basis Set:
  Basis Set: CC-PVTZ
  Basis Set:
  @DF-RHF Final Energy:  -232.24629084980677
    Total Energy =                       -232.2462908498068828
  Basis Set: CC-PVTZ
  Basis Set:
  Charge       = 0
  Multiplicity = 1
  Basis Set: CC-PVTZ
  Basis Set:

    Orbital Energies (a.u.)
    -----------------------

    Doubly Occupied:

       1A    -20.541756     2A    -11.280873     3A    -11.212598
       4A    -11.206346     5A    -11.203719     6A     -1.364443
       7A     -1.065353     8A     -0.943670     9A     -0.938998
      10A     -0.778525    11A     -0.672443    12A     -0.624391
      13A     -0.622879    14A     -0.576080    15A     -0.557604
      16A     -0.533184    17A     -0.517053    18A     -0.511317
      19A     -0.504410    20A     -0.458373    21A     -0.428432

  @DF-RHF Final Energy:  -232.24629142739991

   => Energetics <=

    Nuclear Repulsion Energy =            200.6534050029748641
    One-Electron Energy =                -712.7145022692561724
    Two-Electron Energy =                 279.8148058388815116
    DFT Exchange-Correlation Energy =       0.0000000000000000
    Empirical Dispersion Energy =           0.0000000000000000
    PCM Polarization Energy =               0.0000000000000000
    EFP Energy =                            0.0000000000000000
    Total Energy =                       -232.2462914273997967
    Molecular point group: c1
  Basis Set: CC-PVTZ
  Basis Set:

  -Total Gradient:
     Atom            X                  Y                   Z
    ------   -----------------  -----------------  -----------------
       1        0.000026215715     0.001611776037     0.000036567628
       2       -0.000144341168    -0.001706250219    -0.000004944240
       3        0.000425764789    -0.000824103353     0.000016959531
       4       -0.000328447020     0.000929603683    -0.000015981413
       5       -0.000000349177     0.000015578859    -0.000025891675
       6        0.000011221905    -0.000004781504     0.000005150209
       7        0.000012633536     0.000004724355     0.000000354450
       8       -0.000013302722    -0.000011174764     0.000002443944
       9       -0.000001950127     0.000004233538     0.000004117818
      10       -0.000004735317    -0.000013976490    -0.000004878482
      11       -0.000000016325     0.000007404456    -0.000001009834
      12       -0.000000639695     0.000004081189     0.000001703907
      13       -0.000001159296     0.000002083806    -0.000019654139
      14        0.000000220680    -0.000016079228     0.000001022431
      15        0.000018884222    -0.000003120366     0.000004039865

  **** Optimization is complete! (in 6 steps) ****
    Final optimized geometry and variables:
    Molecular point group: c1

    Geometry (in Angstrom), charge = 0, multiplicity = 1:

    H           -0.823966179477    -0.027754169655     1.743141393400
    O            0.046365515485    -0.033050645194     1.388442717439
    C           -0.000905210835    -0.003600008477    -0.025342783408
    C            1.369854094588     0.487542773063    -0.471711349702
    C           -0.272118004776    -1.412342933216    -0.549090817340
    C           -1.090468091449     0.963009980980    -0.484290452006
    H            1.439158160363     0.513947460004    -1.552915592373
    H            2.143129291556    -0.169667964142    -0.093878346624
    H            1.555481181889     1.482475611544    -0.087468440033
    H           -0.280220462865    -1.435542959103    -1.633042596926
    H            0.490191872821    -2.094814410343    -0.195116981658
    H           -1.233962480310    -1.771911784042    -0.198587336901
    H           -1.123314916221     1.030637230694    -1.565094605182
    H           -0.910066912917     1.953358229957    -0.084227995948
    H           -2.068044553272     0.631717372143    -0.145770843062

  Mulliken Charges: (a.u.)
   Center  Symbol    Alpha    Beta     Spin     Total
       1     H     0.39479  0.39479  0.00000  0.21042
       2     O     4.21221  4.21221  0.00000 -0.42442
       3     C     2.87850  2.87850  0.00000  0.24301
       4     C     3.14218  3.14218  0.00000 -0.28436
       5     C     3.14637  3.14637  0.00000 -0.29274
       6     C     3.15459  3.15459  0.00000 -0.30917
       7     H     0.45895  0.45895  0.00000  0.08210
       8     H     0.44735  0.44735  0.00000  0.10530
       9     H     0.45007  0.45007  0.00000  0.09986
      10     H     0.45716  0.45716  0.00000  0.08568
      11     H     0.44763  0.44763  0.00000  0.10473
      12     H     0.45511  0.45511  0.00000  0.08977
      13     H     0.45353  0.45353  0.00000  0.09294
      14     H     0.44561  0.44561  0.00000  0.10877
      15     H     0.45595  0.45595  0.00000  0.08810

   Total alpha = 21.00000, Total beta = 21.00000, Total charge =  0.00000
