                              Psi4 1.0.54 Driver

  ==> Input File <==

--------------------------------------------------------------------------
set {
	reference rhf
	basis cc-pvtz
}

set_num_threads( 4 )
memory 2 gb

molecule MOL {
0 1

H	 -2.660326	 -0.937888	 1.657599
O	 -1.830836	 -0.636436	 1.336490
C	 -2.021813	 0.336996	 0.342658
C	 -0.669613	 0.837286	 -0.127252
H	 -2.565415	 -0.085382	 -0.498660
H	 -2.609188	 1.166594	 0.731428
C	 0.490865	 -0.082543	 0.241244
H	 -0.708709	 0.967192	 -1.204587
H	 -0.507562	 1.822272	 0.303070
C	 1.839800	 0.429565	 -0.255472
H	 0.305636	 -1.070211	 -0.165276
H	 0.527397	 -0.195943	 1.322876
C	 3.001144	 -0.485193	 0.119072
H	 1.804373	 0.541073	 -1.335756
H	 2.020437	 1.423114	 0.146921
H	 2.866892	 -1.477297	 -0.298806
H	 3.943543	 -0.095749	 -0.249061
H	 3.085064	 -0.590459	 1.195790

	symmetry c1
}
set optking {
	frozen_dihedral = ("
		2 3 4 8
	")
}

ee,wfn = optimize('scf', return_wfn=True)
oeprop( wfn, 'DIPOLE', 'QUADRUPOLE', 'MULLIKEN_CHARGES')
f=open( 'psi4out.xyz', 'w' )
f.write( "18  " )
f.write( str(ee) + "\n" )
f.write( MOL.save_string_xyz() )
f.close()
--------------------------------------------------------------------------

    Molecular point group: c1
  Charge       = 0
  Multiplicity = 1
  Basis Set: CC-PVTZ
  Basis Set:
  @DF-RHF Final Energy:  -271.27864191107915
    Total Energy =                       -271.2786419110791485
    Molecular point group: c1
  Basis Set: CC-PVTZ
  Basis Set:
  Basis Set: CC-PVTZ
  Basis Set:
  @DF-RHF Final Energy:  -271.08136256564364
    Total Energy =                       -271.0813625656436443
  Basis Set: CC-PVTZ
  Basis Set:
  Basis Set: CC-PVTZ
  Basis Set:
  @DF-RHF Final Energy:  -271.20681570949404
    Total Energy =                       -271.2068157094938670
  Basis Set: CC-PVTZ
  Basis Set:
  Basis Set: CC-PVTZ
  Basis Set:
  @DF-RHF Final Energy:  -271.27444615233833
    Total Energy =                       -271.2744461523385553
  Basis Set: CC-PVTZ
  Basis Set:
  @DF-RHF Final Energy:  -271.27861358927356
    Total Energy =                       -271.2786135892736183
  Basis Set: CC-PVTZ
  Basis Set:
  @DF-RHF Final Energy:  -271.27979853582548
    Total Energy =                       -271.2797985358255914
  Basis Set: CC-PVTZ
  Basis Set:
  Basis Set: CC-PVTZ
  Basis Set:
  @DF-RHF Final Energy:  -271.27992174967972
    Total Energy =                       -271.2799217496795450
  Basis Set: CC-PVTZ
  Basis Set:
  Basis Set: CC-PVTZ
  Basis Set:
  @DF-RHF Final Energy:  -271.27992773058963
    Total Energy =                       -271.2799277305895203
  Basis Set: CC-PVTZ
  Basis Set:
  Charge       = 0
  Multiplicity = 1
  Basis Set: CC-PVTZ
  Basis Set:

    Orbital Energies (a.u.)
    -----------------------

    Doubly Occupied:

       1A    -20.545913     2A    -11.266813     3A    -11.211206
       4A    -11.207116     5A    -11.201927     6A    -11.200987
       7A     -1.364053     8A     -1.073125     9A     -1.006136
      10A     -0.913937    11A     -0.817941    12A     -0.782234
      13A     -0.699466    14A     -0.657855    15A     -0.618068
      16A     -0.583422    17A     -0.572648    18A     -0.554295
      19A     -0.518190    20A     -0.500732    21A     -0.495055
      22A     -0.463517    23A     -0.458793    24A     -0.443727
      25A     -0.427898

  @DF-RHF Final Energy:  -271.27992840734566

   => Energetics <=

    Nuclear Repulsion Energy =            250.1312712055529062
    One-Electron Energy =                -863.6522893554424627
    Two-Electron Energy =                 342.2410897425438634
    DFT Exchange-Correlation Energy =       0.0000000000000000
    Empirical Dispersion Energy =           0.0000000000000000
    PCM Polarization Energy =               0.0000000000000000
    EFP Energy =                            0.0000000000000000
    Total Energy =                       -271.2799284073456647
    Molecular point group: c1
  Basis Set: CC-PVTZ
  Basis Set:

  -Total Gradient:
     Atom            X                  Y                   Z
    ------   -----------------  -----------------  -----------------
       1       -0.000009190569    -0.000005102414     0.000007384965
       2        0.000153676999    -0.004143613582    -0.001063907632
       3        0.000231984387     0.004505461319     0.001833326480
       4       -0.002207788378     0.004419161231    -0.002670142309
       5        0.000023548904     0.000003585277    -0.000014107357
       6       -0.000008938911     0.000013893823    -0.000011271712
       7       -0.000048938720    -0.000060679276    -0.000064935600
       8        0.001792868788    -0.004756055076     0.001932070558
       9       -0.000010654913    -0.000013782933    -0.000006306544
      10        0.000020164659     0.000012248089     0.000051906647
      11       -0.000000198998     0.000015562395     0.000002045318
      12        0.000000895832    -0.000006868292     0.000015611634
      13        0.000022239038     0.000015671528    -0.000010423646
      14       -0.000005869962     0.000000149883     0.000022468309
      15        0.000015881444    -0.000001831723    -0.000013859240
      16       -0.000005040656     0.000018258171    -0.000002175964
      17        0.000037130112    -0.000008088229     0.000000790994
      18       -0.000001769057    -0.000007970191    -0.000008474902

  **** Optimization is complete! (in 9 steps) ****
    Final optimized geometry and variables:
    Molecular point group: c1

    Geometry (in Angstrom), charge = 0, multiplicity = 1:

    H           -2.747901446045    -0.148379794481     1.799036384811
    O           -1.917229570349    -0.051376324332     1.371840977534
    C           -2.116497598932     0.292121879487     0.024529018787
    C           -0.773694755719     0.509491540557    -0.688597942198
    H           -2.658802716846    -0.509306747886    -0.470641450873
    H           -2.724525888050     1.188513463394    -0.053526191882
    C            0.427823247479    -0.145986306777    -0.005474510338
    H           -0.850962598938     0.078221832760    -1.681552253698
    H           -0.580370021963     1.570058970615    -0.805223980725
    C            1.716795160112     0.039966334126    -0.801446317402
    H            0.235808287715    -1.206345875570     0.128212858224
    H            0.552593876427     0.264075320976     0.988782871987
    C            2.928258950414    -0.599030928055    -0.130456543092
    H            1.594196937444    -0.381190835130    -1.796043921697
    H            1.903824803515     1.101415884867    -0.942781039591
    H            2.787406221422    -1.667530093754    -0.005589002607
    H            3.827835916447    -0.450414930180    -0.717192882272
    H            3.099864804135    -0.173491020617     0.852553446091

  Mulliken Charges: (a.u.)
   Center  Symbol    Alpha    Beta     Spin     Total
       1     H     0.39913  0.39913  0.00000  0.20173
       2     O     4.19032  4.19032  0.00000 -0.38064
       3     C     2.96831  2.96831  0.00000  0.06339
       4     C     3.10213  3.10213  0.00000 -0.20425
       5     H     0.47335  0.47335  0.00000  0.05331
       6     H     0.46931  0.46931  0.00000  0.06138
       7     C     3.08011  3.08011  0.00000 -0.16022
       8     H     0.45575  0.45575  0.00000  0.08851
       9     H     0.45317  0.45317  0.00000  0.09366
      10     C     3.08534  3.08534  0.00000 -0.17067
      11     H     0.45360  0.45360  0.00000  0.09279
      12     H     0.44588  0.44588  0.00000  0.10824
      13     C     3.14975  3.14975  0.00000 -0.29950
      14     H     0.45717  0.45717  0.00000  0.08565
      15     H     0.45652  0.45652  0.00000  0.08695
      16     H     0.45544  0.45544  0.00000  0.08913
      17     H     0.44995  0.44995  0.00000  0.10011
      18     H     0.45478  0.45478  0.00000  0.09045

   Total alpha = 25.00000, Total beta = 25.00000, Total charge =  0.00000

*** Psi4 exiting successfully. Buy a developer a beer!
