                              Psi4 1.0.54 Driver

  ==> Input File <==

--------------------------------------------------------------------------
set {
	reference rhf
	basis cc-pvtz
}

set_num_threads( 4 )
memory 2 gb

molecule MOL {
0 1

H	 -3.268214	 -0.875720	 0.463107
C	 -2.806015	 0.000007	 0.024886
N	 -1.391133	 0.000016	 0.301321
H	 -3.029448	 0.000055	 -1.045738
H	 -3.268126	 0.875758	 0.463150
C	 -0.628705	 -0.668992	 -0.730526
C	 -1.085069	 -0.548318	 1.604849
H	 -0.909454	 -1.723078	 -0.813776
H	 -0.839705	 -0.198187	 -1.683367
C	 0.858431	 -0.575150	 -0.444807
H	 -1.629225	 0.010579	 2.356925
H	 -1.396924	 -1.594180	 1.680798
C	 0.402066	 -0.454476	 1.890568
H	 1.402587	 -1.134047	 -1.196883
H	 1.170286	 0.470711	 -0.520756
N	 1.164495	 -1.123484	 0.858721
H	 0.613067	 -0.925281	 2.843409
H	 0.682816	 0.599610	 1.973819
C	 2.579377	 -1.123475	 1.135156
H	 3.104789	 -1.685867	 0.373435
H	 2.769268	 -1.597204	 2.090187
H	 3.005849	 -0.116849	 1.166529

	symmetry c1
}
set optking {
	frozen_dihedral = ("
		6 3 2 4
	")
}

ee,wfn = optimize('scf', return_wfn=True)
oeprop( wfn, 'DIPOLE', 'QUADRUPOLE', 'MULLIKEN_CHARGES')
f=open( 'psi4out.xyz', 'w' )
f.write( "22  " )
f.write( str(ee) + "\n" )
f.write( MOL.save_string_xyz() )
f.close()
--------------------------------------------------------------------------

    Molecular point group: c1
  Charge       = 0
  Multiplicity = 1
  Basis Set: CC-PVTZ
  Basis Set:
  @DF-RHF Final Energy:  -344.34732524225836
    Total Energy =                       -344.3473252422584210
    Molecular point group: c1
  Basis Set: CC-PVTZ
  Basis Set:
  Basis Set: CC-PVTZ
  Basis Set:
  @DF-RHF Final Energy:  -344.34819895007581
    Total Energy =                       -344.3481989500761529
  Basis Set: CC-PVTZ
  Basis Set:
  Basis Set: CC-PVTZ
  Basis Set:
  @DF-RHF Final Energy:  -344.34831070016355
    Total Energy =                       -344.3483107001636654
  Basis Set: CC-PVTZ
  Basis Set:
  Basis Set: CC-PVTZ
  Basis Set:
  @DF-RHF Final Energy:  -344.34831667727974
    Total Energy =                       -344.3483166772797404
  Basis Set: CC-PVTZ
  Basis Set:
  Charge       = 0
  Multiplicity = 1
  Basis Set: CC-PVTZ
  Basis Set:

    Orbital Energies (a.u.)
    -----------------------

    Doubly Occupied:

       1A    -15.537544     2A    -15.535105     3A    -11.237693
       4A    -11.237447     5A    -11.236798     6A    -11.236744
       7A    -11.234327     8A    -11.234161     9A     -1.256538
      10A     -1.205222    11A     -1.026190    12A     -0.992621
      13A     -0.912510    14A     -0.868591    15A     -0.836358
      16A     -0.754309    17A     -0.666639    18A     -0.637904
      19A     -0.632446    20A     -0.627092    21A     -0.621897
      22A     -0.581474    23A     -0.551820    24A     -0.547395
      25A     -0.543202    26A     -0.518251    27A     -0.497119
      28A     -0.489816    29A     -0.467418    30A     -0.457529
      31A     -0.351619    32A     -0.343122

  @DF-RHF Final Energy:  -344.34831731905842

   => Energetics <=

    Nuclear Repulsion Energy =            421.7332343603327445
    One-Electron Energy =               -1302.4092987189983432
    Two-Electron Energy =                 536.3277470396071749
    DFT Exchange-Correlation Energy =       0.0000000000000000
    Empirical Dispersion Energy =           0.0000000000000000
    PCM Polarization Energy =               0.0000000000000000
    EFP Energy =                            0.0000000000000000
    Total Energy =                       -344.3483173190584239
    Molecular point group: c1
  Basis Set: CC-PVTZ
  Basis Set:

  -Total Gradient:
     Atom            X                  Y                   Z
    ------   -----------------  -----------------  -----------------
       1       -0.000015706355    -0.000007879453     0.000003327595
       2        0.000314518304     0.006743245598    -0.000522417936
       3       -0.000599577302    -0.005263796652     0.002196442399
       4       -0.000147545395    -0.004380157723    -0.000111377028
       5        0.000023422165    -0.000038006166     0.000007180287
       6        0.000426708782     0.002911545442    -0.001587967590
       7       -0.000005221077     0.000020967905     0.000012286591
       8       -0.000011282719     0.000013279389     0.000009139622
       9        0.000004284285     0.000001966221     0.000004525331
      10        0.000014906601     0.000010526073    -0.000001394285
      11       -0.000006854857    -0.000001679557     0.000000587763
      12        0.000009542938     0.000014955342    -0.000010071218
      13       -0.000006409634    -0.000021535829     0.000009406278
      14        0.000006887344    -0.000000414387     0.000001495274
      15        0.000000310963     0.000004398055    -0.000004901485
      16       -0.000010902573     0.000003175862    -0.000011007083
      17        0.000014483415    -0.000001028936     0.000008500509
      18       -0.000010135641    -0.000008726171    -0.000003777497
      19        0.000001725730    -0.000002326951     0.000000227132
      20       -0.000003091842     0.000001235895     0.000000705487
      21        0.000000692159     0.000000040189     0.000000612823
      22       -0.000000755290     0.000000215851    -0.000001522973

  **** Optimization is complete! (in 5 steps) ****
    Final optimized geometry and variables:
    Molecular point group: c1

    Geometry (in Angstrom), charge = 0, multiplicity = 1:

    H           -3.221927701753    -0.296929780481    -0.210316056626
    C           -2.692389503233     0.585457944313    -0.578923731092
    N           -1.276579162724     0.530586377491    -0.301302878850
    H           -2.862432497341     0.616976359357    -1.646920652245
    H           -3.142248409223     1.458734587298    -0.122051716346
    C           -0.499024549063    -0.131072052221    -1.323753224561
    C           -0.980502646403     0.024681840211     1.017742786011
    H           -0.765711269810    -1.188488382732    -1.418266156072
    H           -0.696872308360     0.343229060120    -2.277012618570
    C            0.983253689570    -0.025365451146    -1.014998992493
    H           -1.532195212349     0.605306021892     1.748457979522
    H           -1.294198982932    -1.018304941593     1.123236305173
    C            0.504011152160     0.126777886316     1.313780782450
    H            1.542578256546    -0.587556883765    -1.753460649449
    H            1.289016668616     1.022094858574    -1.096135254433
    N            1.274487296232    -0.558057549533     0.298441757662
    H            0.708952671483    -0.327589298308     2.275973374538
    H            0.782988639196     1.182561657057     1.381057128355
    C            2.686484997228    -0.557535481266     0.588855596672
    H            3.218071061702    -1.131633293681    -0.159789426898
    H            2.865879281770    -1.018361327393     1.552242282405
    H            3.115338041213     0.448457002421     0.610552139014

  Mulliken Charges: (a.u.)
   Center  Symbol    Alpha    Beta     Spin     Total
       1     H     0.46870  0.46870  0.00000  0.06260
       2     C     3.09644  3.09644  0.00000 -0.19289
       3     N     3.61330  3.61330  0.00000 -0.22660
       4     H     0.45479  0.45479  0.00000  0.09042
       5     H     0.44997  0.44997  0.00000  0.10005
       6     C     3.03327  3.03327  0.00000 -0.06653
       7     C     3.03471  3.03471  0.00000 -0.06942
       8     H     0.46998  0.46998  0.00000  0.06004
       9     H     0.45397  0.45397  0.00000  0.09206
      10     C     3.03630  3.03630  0.00000 -0.07260
      11     H     0.45421  0.45421  0.00000  0.09159
      12     H     0.46804  0.46804  0.00000  0.06392
      13     C     3.03606  3.03606  0.00000 -0.07212
      14     H     0.45398  0.45398  0.00000  0.09203
      15     H     0.46850  0.46850  0.00000  0.06300
      16     N     3.61313  3.61313  0.00000 -0.22626
      17     H     0.45392  0.45392  0.00000  0.09216
      18     H     0.46834  0.46834  0.00000  0.06333
      19     C     3.09835  3.09835  0.00000 -0.19670
      20     H     0.45194  0.45194  0.00000  0.09612
      21     H     0.45194  0.45194  0.00000  0.09612
      22     H     0.47017  0.47017  0.00000  0.05967

   Total alpha = 32.00000, Total beta = 32.00000, Total charge =  0.00000

*** Psi4 exiting successfully. Buy a developer a beer!
