  ==> Input File <==

--------------------------------------------------------------------------
set {
	reference rhf
	basis cc-pvtz
}

set_num_threads( 4 )
memory 2 gb

molecule MOL {
0 1

H	 -4.000311	 -0.667186	 0.595308
C	 -2.937479	 -0.518895	 0.619241
C	 -2.398967	 0.490763	 1.396568
C	 -2.110891	 -1.337481	 -0.126849
H	 -3.041171	 1.125752	 1.975414
C	 -1.033132	 0.680701	 1.426809
H	 -2.529497	 -2.120192	 -0.729348
C	 -0.743064	 -1.148551	 -0.097617
H	 -0.599435	 1.457503	 2.023084
C	 -0.200185	 -0.138053	 0.679999
H	 -0.100121	 -1.780740	 -0.674237
C	 1.268792	 0.108052	 0.746765
O	 1.968286	 -0.725612	 -0.000027
O	 1.765127	 0.962841	 1.401110
C	 3.373556	 -0.568203	 0.000011
H	 3.695416	 -0.031588	 -0.879663
H	 3.782700	 -1.565294	 -0.000152
H	 3.695405	 -0.031851	 0.879862

	symmetry c1
}
set optking {
	frozen_dihedral = ("
		12 13 15 16
	")
}

ee = optimize('scf')
oeprop('DIPOLE', 'QUADRUPOLE', 'MULLIKEN_CHARGES')
f=open( 'psi4out.xyz', 'w' )
f.write( "18  " )
f.write( str(ee) + "\n" )
f.write( MOL.save_string_xyz() )
f.close()
--------------------------------------------------------------------------

    Molecular point group: c1
  Charge       = 0
  Multiplicity = 1
  Basis Set: CC-PVTZ
  Basis Set:
  @DF-RHF Final Energy:  -457.50813704656338
    Total Energy =                       -457.5081370465629789
    Molecular point group: c1
  Basis Set: CC-PVTZ
  Basis Set:
  Basis Set: CC-PVTZ
  Basis Set:
  @DF-RHF Final Energy:  -457.50831475219013
    Total Energy =                       -457.5083147521902447
  Basis Set: CC-PVTZ
  Basis Set:
  Basis Set: CC-PVTZ
  Basis Set:
  @DF-RHF Final Energy:  -457.50846812321106
    Total Energy =                       -457.5084681232106050
  Basis Set: CC-PVTZ
  Basis Set:
  Basis Set: CC-PVTZ
  Basis Set:
  @DF-RHF Final Energy:  -457.50858725775663
    Total Energy =                       -457.5085872577565169
  Basis Set: CC-PVTZ
  Basis Set:
  Basis Set: CC-PVTZ
  Basis Set:
  @DF-RHF Final Energy:  -457.50862006147577
    Total Energy =                       -457.5086200614755398
  Basis Set: CC-PVTZ
  Basis Set:
  Basis Set: CC-PVTZ
  Basis Set:
  @DF-RHF Final Energy:  -457.50862091061344
    Total Energy =                       -457.5086209106129900
  Basis Set: CC-PVTZ
  Basis Set:
  Charge       = 0
  Multiplicity = 1
  Basis Set: CC-PVTZ
  Basis Set:

    Orbital Energies (a.u.)
    -----------------------

    Doubly Occupied:

       1A    -20.600227     2A    -20.533821     3A    -11.372859
       4A    -11.280314     5A    -11.244659     6A    -11.243251
       7A    -11.242356     8A    -11.239718     9A    -11.235777
      10A    -11.235010    11A     -1.475076    12A     -1.368964
      13A     -1.170440    14A     -1.051622    15A     -1.028749
      16A     -0.981469    17A     -0.862869    18A     -0.838136
      19A     -0.780585    20A     -0.745054    21A     -0.688269
      22A     -0.679806    23A     -0.676176    24A     -0.634250
      25A     -0.629813    26A     -0.600996    27A     -0.587750
      28A     -0.569588    29A     -0.527837    30A     -0.520101
      31A     -0.509925    32A     -0.501700    33A     -0.461361
      34A     -0.449536    35A     -0.350042    36A     -0.345949

  @DF-RHF Final Energy:  -457.50862240579488

   => Energetics <=

    Nuclear Repulsion Energy =            493.6883124842712505
    One-Electron Energy =               -1601.8657579718906163
    Two-Electron Energy =                 650.6688230818248257
    DFT Exchange-Correlation Energy =       0.0000000000000000
    Empirical Dispersion Energy =           0.0000000000000000
    PCM Polarization Energy =               0.0000000000000000
    EFP Energy =                            0.0000000000000000
    Total Energy =                       -457.5086224057946538
    Molecular point group: c1
  Basis Set: CC-PVTZ
  Basis Set:

  -Total Gradient:
     Atom            X                  Y                   Z
    ------   -----------------  -----------------  -----------------
       1        0.000000003683    -0.000000185056    -0.000000937438
       2       -0.000000332769     0.000001747490     0.000001079230
       3       -0.000000186977    -0.000002316099    -0.000000022317
       4        0.000002852884    -0.000002763774     0.000000473019
       5        0.000001148178    -0.000000144362     0.000000737348
       6        0.000003657778     0.000003156200    -0.000002674168
       7       -0.000000017314    -0.000000226259    -0.000000048525
       8       -0.000002022003     0.000005072132    -0.000003620067
       9       -0.000000372027    -0.000000404651     0.000000476512
      10       -0.000001112762    -0.000004410596     0.000000620564
      11        0.000001786431    -0.000002111658    -0.000000242896
      12        0.000081824718    -0.000796448987     0.000944392339
      13       -0.000061672194     0.000857203087    -0.001545986592
      14       -0.000003992798     0.000003681597     0.000000162420
      15       -0.000093857793     0.001139084775     0.001311762354
      16        0.000081622521    -0.001199655704    -0.000708627888
      17       -0.000003367571    -0.000001080693     0.000000412595
      18       -0.000005961986    -0.000000197442     0.000002043510

  **** Optimization is complete! (in 7 steps) ****
    Final optimized geometry and variables:
    Molecular point group: c1

    Geometry (in Angstrom), charge = 0, multiplicity = 1:

    H           -4.019706842456    -0.479876461132    -0.010775796911
    C           -2.958130062626    -0.322980046690     0.015722114757
    C           -2.429751866605     0.692270803000     0.792832482353
    C           -2.122812421813    -1.135775345968    -0.726856437907
    H           -3.078546277463     1.323083053701     1.369000771262
    C           -1.065603866800     0.893370673922     0.826240498566
    H           -2.533198256289    -1.922841969767    -1.329406931891
    C           -0.756494233383    -0.935693420512    -0.694312077610
    H           -0.640102008789     1.674823452512     1.422346782831
    C           -0.223719793071     0.080176262321     0.083155607252
    H           -0.107292691156    -1.563553177184    -1.268569541776
    C            1.243895226440     0.339592038614     0.154945017751
    O            1.946055699066    -0.490087028192    -0.594712902838
    O            1.725003245800     1.199382888901     0.813439266245
    C            3.356889086488    -0.381839921758    -0.602944438165
    H            3.667277346796     0.157795331124    -1.486697487168
    H            3.744353466122    -1.388004200173    -0.646840753981
    H            3.711849268219     0.120257615857     0.280114531950

  Mulliken Charges: (a.u.)
   Center  Symbol    Alpha    Beta     Spin     Total
       1     H     0.42033  0.42033  0.00000  0.15933
       2     C     3.06974  3.06974  0.00000 -0.13948
       3     C     3.07556  3.07556  0.00000 -0.15111
       4     C     3.07489  3.07489  0.00000 -0.14978
       5     H     0.42046  0.42046  0.00000  0.15907
       6     C     3.07591  3.07591  0.00000 -0.15181
       7     H     0.42196  0.42196  0.00000  0.15608
       8     C     3.08196  3.08196  0.00000 -0.16393
       9     H     0.40642  0.40642  0.00000  0.18715
      10     C     3.01762  3.01762  0.00000 -0.03525
      11     H     0.41120  0.41120  0.00000  0.17760
      12     C     2.77593  2.77593  0.00000  0.44814
      13     O     4.14973  4.14973  0.00000 -0.29946
      14     O     4.21150  4.21150  0.00000 -0.42300
      15     C     3.04045  3.04045  0.00000 -0.08091
      16     H     0.45492  0.45492  0.00000  0.09015
      17     H     0.44923  0.44923  0.00000  0.10154
      18     H     0.44218  0.44218  0.00000  0.11564

   Total alpha = 36.00000, Total beta = 36.00000, Total charge =  0.00000
