  ==> Input File <==

--------------------------------------------------------------------------
set {
	reference rhf
	basis 6-31G*
}

set_num_threads( 4 )
memory 2 gb

molecule MOL {
0 1

H	 -2.857373	 -3.124370	 -0.043835
O	 -2.691835	 -2.216950	 -0.256178
C	 -1.408768	 -1.854965	 0.185747
C	 -1.177863	 -0.397191	 -0.171080
H	 -1.321123	 -1.993746	 1.262485
H	 -0.650836	 -2.478822	 -0.286144
C	 0.198102	 0.111031	 0.262842
H	 -1.960096	 0.196628	 0.293914
H	 -1.297605	 -0.285004	 -1.245116
C	 1.331804	 -0.827780	 -0.158768
H	 0.361943	 1.100838	 -0.156218
H	 0.217265	 0.229072	 1.345532
C	 2.723619	 -0.410569	 0.329459
H	 1.342964	 -0.912588	 -1.244120
H	 1.116806	 -1.824343	 0.220779
C	 3.243875	 0.895854	 -0.272975
H	 3.424222	 -1.207124	 0.091250
H	 2.714788	 -0.329854	 1.414619
H	 3.251977	 0.848779	 -1.358681
H	 2.637085	 1.747371	 0.016682
H	 4.259473	 1.094070	 0.055697

	symmetry c1
}
set optking {
	frozen_dihedral = ("
		8 4 7 10
	")
}

ee = optimize('scf')
oeprop('DIPOLE', 'QUADRUPOLE', 'MULLIKEN_CHARGES')
f=open( 'psi4out.xyz', 'w' )
f.write( "21  " )
f.write( str(ee) + "\n" )
f.write( MOL.save_string_xyz() )
f.close()
--------------------------------------------------------------------------

    Molecular point group: c1
  Charge       = 0
  Multiplicity = 1
  Basis Set: 6-31G*
  Basis Set:
  @DF-RHF Final Energy:  -310.20759399576463
    Total Energy =                       -310.2075939957649666
    Molecular point group: c1
  Basis Set: 6-31G*
  Basis Set:
  Basis Set: 6-31G*
  Basis Set:
  @DF-RHF Final Energy:  -310.20845449514746
    Total Energy =                       -310.2084544951470662
  Basis Set: 6-31G*
  Basis Set:
  Basis Set: 6-31G*
  Basis Set:
  @DF-RHF Final Energy:  -310.20986928348708
    Total Energy =                       -310.2098692834870803
  Basis Set: 6-31G*
  Basis Set:
  Basis Set: 6-31G*
  Basis Set:
  @DF-RHF Final Energy:  -310.21003106102557
    Total Energy =                       -310.2100310610255747
  Basis Set: 6-31G*
  Basis Set:
  Basis Set: 6-31G*
  Basis Set:
  @DF-RHF Final Energy:  -310.21003829770063
    Total Energy =                       -310.2100382977009758
  Basis Set: 6-31G*
  Basis Set:
  Basis Set: 6-31G*
  Basis Set:
  @DF-RHF Final Energy:  -310.21002978765239
    Total Energy =                       -310.2100297876523882
  Basis Set: 6-31G*
  Basis Set:
  Basis Set: 6-31G*
  Basis Set:
  @DF-RHF Final Energy:  -310.21004691879523
    Total Energy =                       -310.2100469187952285
  Basis Set: 6-31G*
  Basis Set:
  Charge       = 0
  Multiplicity = 1
  Basis Set: 6-31G*
  Basis Set:

    Orbital Energies (a.u.)
    -----------------------

    Doubly Occupied:

       1A    -20.551384     2A    -11.266237     3A    -11.216753
       4A    -11.215966     5A    -11.215403     6A    -11.210874
       7A    -11.208772     8A     -1.358081     9A     -1.086572
      10A     -1.031764    11A     -0.951070    12A     -0.884889
      13A     -0.812618    14A     -0.768923    15A     -0.695231
      16A     -0.652715    17A     -0.628554    18A     -0.609704
      19A     -0.578864    20A     -0.573305    21A     -0.534311
      22A     -0.528749    23A     -0.514590    24A     -0.485813
      25A     -0.482169    26A     -0.460401    27A     -0.451086
      28A     -0.443757    29A     -0.432076

  @DF-RHF Final Energy:  -310.21004696347035

   => Energetics <=

    Nuclear Repulsion Energy =            316.2563089609396343
    One-Electron Energy =               -1047.2314550585854249
    Two-Electron Energy =                 420.7650991341755002
    DFT Exchange-Correlation Energy =       0.0000000000000000
    Empirical Dispersion Energy =           0.0000000000000000
    PCM Polarization Energy =               0.0000000000000000
    EFP Energy =                            0.0000000000000000
    Total Energy =                       -310.2100469634703472
    Molecular point group: c1
  Basis Set: 6-31G*
  Basis Set:

  -Total Gradient:
     Atom            X                  Y                   Z
    ------   -----------------  -----------------  -----------------
       1       -0.000034850602    -0.000008875932    -0.000000560351
       2       -0.000018462676    -0.000048149366    -0.000005065336
       3        0.000002279712     0.000042711659    -0.000035789115
       4        0.000079381897     0.002113097807    -0.002035581663
       5        0.000013596669     0.000008622640    -0.000006495753
       6       -0.000010009167    -0.000004969776     0.000002202935
       7        0.000390613340     0.001372272937    -0.002292369594
       8       -0.000150561761    -0.002167000678     0.002376079437
       9        0.000003800822    -0.000023234403     0.000012233157
      10       -0.000295307920    -0.001292451663     0.001977385937
      11        0.000013876111     0.000012044569     0.000002360006
      12        0.000003917213     0.000000074387    -0.000008654216
      13        0.000010531280    -0.000002072606     0.000008340409
      14        0.000000369220    -0.000004769704    -0.000000639690
      15       -0.000006838654     0.000003912133     0.000004302814
      16       -0.000007344606    -0.000000547587     0.000002796080
      17        0.000002169656     0.000001901268    -0.000004170293
      18        0.000009699721    -0.000005918419     0.000004036147
      19        0.000005221658     0.000001159794    -0.000001065630
      20       -0.000006321345     0.000003167833    -0.000003139527
      21       -0.000005760569    -0.000000974891     0.000003794247

  **** Optimization is complete! (in 8 steps) ****
    Final optimized geometry and variables:
    Molecular point group: c1

    Geometry (in Angstrom), charge = 0, multiplicity = 1:

    H           -3.310371998458    -2.303125826538    -0.088778675656
    O           -3.082223494266    -1.394382002879    -0.223159165633
    C           -1.736387901053    -1.189002126186     0.125952574489
    C           -1.405221672595     0.268009580660    -0.160216706791
    H           -1.577337005967    -1.406610368206     1.182053519745
    H           -1.094141350548    -1.853815242484    -0.445893830130
    C           -0.028975172267     0.724246429152     0.342151516722
    H           -2.173524851830     0.857612803237     0.330732037681
    H           -1.498798374012     0.439512255387    -1.228716390379
    C            1.146367917673    -0.167924862474    -0.073357720199
    H            0.133879545613     1.739145324839    -0.006378089471
    H           -0.049822530990     0.778779946313     1.429801373741
    C            2.519005718555     0.355885600650     0.367600926670
    H            1.144061858573    -0.297156631315    -1.155201686935
    H            1.011984644016    -1.158957293014     0.351541131773
    C            2.971940746931     1.634066285580    -0.340570289248
    H            3.257737069085    -0.420838913160     0.185728642796
    H            2.512021907728     0.520571483983     1.443290304632
    H            2.985515074026     1.498026829624    -1.418603416984
    H            2.322834025228     2.475048555534    -0.121415719795
    H            3.975329672674     1.909720012485    -0.030815001925

  Mulliken Charges: (a.u.)
   Center  Symbol    Alpha    Beta     Spin     Total
       1     H     0.28134  0.28134  0.00000  0.43731
       2     O     4.37252  4.37252  0.00000 -0.74505
       3     C     2.99328  2.99328  0.00000  0.01343
       4     C     3.15904  3.15904  0.00000 -0.31808
       5     H     0.43340  0.43340  0.00000  0.13319
       6     H     0.43032  0.43032  0.00000  0.13937
       7     C     3.16175  3.16175  0.00000 -0.32350
       8     H     0.41168  0.41168  0.00000  0.17664
       9     H     0.41586  0.41586  0.00000  0.16829
      10     C     3.15707  3.15707  0.00000 -0.31414
      11     H     0.41677  0.41677  0.00000  0.16646
      12     H     0.42347  0.42347  0.00000  0.15306
      13     C     3.15221  3.15221  0.00000 -0.30443
      14     H     0.42337  0.42337  0.00000  0.15326
      15     H     0.42202  0.42202  0.00000  0.15595
      16     C     3.24115  3.24115  0.00000 -0.48229
      17     H     0.42091  0.42091  0.00000  0.15819
      18     H     0.42317  0.42317  0.00000  0.15365
      19     H     0.42184  0.42184  0.00000  0.15632
      20     H     0.41978  0.41978  0.00000  0.16043
      21     H     0.41903  0.41903  0.00000  0.16193

   Total alpha = 29.00000, Total beta = 29.00000, Total charge = -0.00000
