                              Psi4 1.0.54 Driver

  ==> Input File <==

--------------------------------------------------------------------------
set {
	reference rhf
	basis cc-pvtz
}

set_num_threads( 4 )
memory 2 gb

molecule MOL {
0 1

O	 -1.336338	 1.050646	 -0.605658
C	 -1.081510	 0.147522	 0.122720
C	 0.327029	 -0.064006	 0.641890
C	 -2.135515	 -0.844177	 0.553855
C	 1.349460	 -0.017068	 -0.500215
H	 0.399029	 -1.014606	 1.159950
H	 0.538021	 0.726928	 1.350471
C	 2.779782	 -0.209014	 -0.009215
H	 1.115007	 -0.782959	 -1.233891
H	 1.259071	 0.936707	 -1.006644
H	 3.481860	 -0.160270	 -0.833072
H	 2.903471	 -1.171535	 0.475559
H	 3.052569	 0.559584	 0.705428
H	 -1.791506	 -1.860518	 0.397442
H	 -3.050764	 -0.675024	 0.007775
H	 -2.320917	 -0.728775	 1.616945

	symmetry c1
}
set optking {
	frozen_dihedral = ("
		4 2 3 5
	")
}

ee,wfn = optimize('scf', return_wfn=True)
oeprop( wfn, 'DIPOLE', 'QUADRUPOLE', 'MULLIKEN_CHARGES')
f=open( 'psi4out.xyz', 'w' )
f.write( "16  " )
f.write( str(ee) + "\n" )
f.write( MOL.save_string_xyz() )
f.close()
--------------------------------------------------------------------------

    Molecular point group: c1
  Charge       = 0
  Multiplicity = 1
  Basis Set: CC-PVTZ
  Basis Set:
  @DF-RHF Final Energy:  -270.12905342685980
    Total Energy =                       -270.1290534268599686
    Molecular point group: c1
  Basis Set: CC-PVTZ
  Basis Set:
  Basis Set: CC-PVTZ
  Basis Set:
  @DF-RHF Final Energy:  -270.12744962481713
    Total Energy =                       -270.1274496248170180
  Basis Set: CC-PVTZ
  Basis Set:
  Basis Set: CC-PVTZ
  Basis Set:
  @DF-RHF Final Energy:  -270.12934158428982
    Total Energy =                       -270.1293415842897048
  Basis Set: CC-PVTZ
  Basis Set:
  Basis Set: CC-PVTZ
  Basis Set:
  @DF-RHF Final Energy:  -270.12946769706355
    Total Energy =                       -270.1294676970635464
  Basis Set: CC-PVTZ
  Basis Set:
  @DF-RHF Final Energy:  -270.12949310773843
    Total Energy =                       -270.1294931077385399
  Basis Set: CC-PVTZ
  Basis Set:
  @DF-RHF Final Energy:  -270.12950059116690
    Total Energy =                       -270.1295005911667886
  Basis Set: CC-PVTZ
  Basis Set:
  Basis Set: CC-PVTZ
  Basis Set:
  @DF-RHF Final Energy:  -270.12952797869451
    Total Energy =                       -270.1295279786942274
  Basis Set: CC-PVTZ
  Basis Set:
  Basis Set: CC-PVTZ
  Basis Set:
  @DF-RHF Final Energy:  -270.12952942991444
    Total Energy =                       -270.1295294299145553
  Basis Set: CC-PVTZ
  Basis Set:
  Charge       = 0
  Multiplicity = 1
  Basis Set: CC-PVTZ
  Basis Set:

    Orbital Energies (a.u.)
    -----------------------

    Doubly Occupied:

       1A    -20.537666     2A    -11.320889     3A    -11.229374
       4A    -11.227852     5A    -11.223923     6A    -11.214054
       7A     -1.398391     8A     -1.079623     9A     -1.016120
      10A     -0.948800    11A     -0.826284    12A     -0.734841
      13A     -0.659630    14A     -0.650617    15A     -0.619384
      16A     -0.603983    17A     -0.572376    18A     -0.561439
      19A     -0.544913    20A     -0.510618    21A     -0.498463
      22A     -0.482376    23A     -0.474499    24A     -0.401175

  @DF-RHF Final Energy:  -270.12952953614626

   => Energetics <=

    Nuclear Repulsion Energy =            237.2558406999891361
    One-Electron Energy =                -836.0961715603883704
    Two-Electron Energy =                 328.7108013242529410
    DFT Exchange-Correlation Energy =       0.0000000000000000
    Empirical Dispersion Energy =           0.0000000000000000
    PCM Polarization Energy =               0.0000000000000000
    EFP Energy =                            0.0000000000000000
    Total Energy =                       -270.1295295361463218
    Molecular point group: c1
  Basis Set: CC-PVTZ
  Basis Set:

  -Total Gradient:
     Atom            X                  Y                   Z
    ------   -----------------  -----------------  -----------------
       1        0.000011546860    -0.000015430209     0.000013777596
       2       -0.000229948541     0.000308103047     0.000675302312
       3        0.000160726582     0.000639101371    -0.000132566815
       4        0.000133871277    -0.000360141587    -0.000505272401
       5       -0.000076393554    -0.000582088138    -0.000069730028
       6       -0.000001891766     0.000002726438    -0.000000648769
       7       -0.000003023047     0.000000586382     0.000002573974
       8        0.000009960901     0.000000187482     0.000006608931
       9       -0.000001195792     0.000003868825     0.000000410607
      10       -0.000000670489    -0.000004524695     0.000000214950
      11       -0.000003393639     0.000000324178     0.000001094405
      12        0.000000556368     0.000004480669    -0.000001843740
      13       -0.000000525643    -0.000004333710    -0.000001413058
      14        0.000000159043     0.000001768606     0.000001768438
      15        0.000000429498     0.000001563450     0.000001975873
      16       -0.000000208061     0.000003807892     0.000007747724

  **** Optimization is complete! (in 9 steps) ****
    Final optimized geometry and variables:
    Molecular point group: c1

    Geometry (in Angstrom), charge = 0, multiplicity = 1:

    O           -1.343048950903     1.047658968283    -0.628443082058
    C           -1.079382843833     0.129873914974     0.077837932166
    C            0.335135614002    -0.085500093584     0.588611128294
    C           -2.128103329292    -0.866758220620     0.505905548099
    C            1.377619038129    -0.033923087051    -0.528302769668
    H            0.401336732660    -1.026032735083     1.124237453390
    H            0.529573187212     0.704095551798     1.309416267615
    C            2.801533155095    -0.182210185856    -0.004754723470
    H            1.171527969055    -0.822509199857    -1.246218818359
    H            1.271465551610     0.902112445871    -1.060262527517
    H            3.517907039598    -0.148708191311    -0.816972601990
    H            2.936172498609    -1.124634455139     0.515863464171
    H            3.048388755694     0.615823470245     0.687353893080
    H           -1.860142161723    -1.853837151049     0.143021438944
    H           -3.093879300386    -0.583347464161     0.116758817913
    H           -2.167051975714    -0.924618358217     1.588649143626

  Mulliken Charges: (a.u.)
   Center  Symbol    Alpha    Beta     Spin     Total
       1     O     4.17522  4.17522  0.00000 -0.35044
       2     C     2.85838  2.85838  0.00000  0.28324
       3     C     3.10227  3.10227  0.00000 -0.20454
       4     C     3.15305  3.15305  0.00000 -0.30610
       5     C     3.08480  3.08480  0.00000 -0.16959
       6     H     0.44792  0.44792  0.00000  0.10417
       7     H     0.44378  0.44378  0.00000  0.11244
       8     C     3.14947  3.14947  0.00000 -0.29895
       9     H     0.45385  0.45385  0.00000  0.09230
      10     H     0.43878  0.43878  0.00000  0.12243
      11     H     0.44617  0.44617  0.00000  0.10765
      12     H     0.45625  0.45625  0.00000  0.08750
      13     H     0.45379  0.45379  0.00000  0.09243
      14     H     0.45026  0.45026  0.00000  0.09948
      15     H     0.43643  0.43643  0.00000  0.12714
      16     H     0.44959  0.44959  0.00000  0.10083

   Total alpha = 24.00000, Total beta = 24.00000, Total charge =  0.00000

*** Psi4 exiting successfully. Buy a developer a beer!
