                              Psi4 1.0.54 Driver

  ==> Input File <==

--------------------------------------------------------------------------
set {
	reference rhf
	basis cc-pvtz
}

set_num_threads( 4 )
memory 2 gb

molecule MOL {
0 1

O	 0.161797	 1.126862	 -0.530462
C	 0.029490	 0.077183	 0.000078
C	 -1.232113	 -0.748027	 0.000015
O	 0.995625	 -0.520208	 0.677528
C	 -2.501422	 0.088592	 -0.000052
H	 -1.188777	 -1.400384	 -0.865133
H	 -1.188857	 -1.400312	 0.865225
H	 -2.548170	 0.725504	 -0.873205
H	 -3.371613	 -0.556398	 -0.000040
H	 -2.548215	 0.725571	 0.873047
C	 2.239346	 0.146320	 0.758409
H	 2.656833	 0.295146	 -0.226371
H	 2.881978	 -0.492169	 1.342515
H	 2.127040	 1.105292	 1.242151

	symmetry c1
}
set optking {
	frozen_dihedral = ("
		4 2 3 6
	")
}

ee,wfn = optimize('scf', return_wfn=True)
oeprop( wfn, 'DIPOLE', 'QUADRUPOLE', 'MULLIKEN_CHARGES')
f=open( 'psi4out.xyz', 'w' )
f.write( "14  " )
f.write( str(ee) + "\n" )
f.write( MOL.save_string_xyz() )
f.close()
--------------------------------------------------------------------------

    Molecular point group: c1
  Charge       = 0
  Multiplicity = 1
  Basis Set: CC-PVTZ
  Basis Set:
  @DF-RHF Final Energy:  -305.98655376632325
    Total Energy =                       -305.9865537663232544
    Molecular point group: c1
  Basis Set: CC-PVTZ
  Basis Set:
  Basis Set: CC-PVTZ
  Basis Set:
  @DF-RHF Final Energy:  -305.98649346776801
    Total Energy =                       -305.9864934677679003
  Basis Set: CC-PVTZ
  Basis Set:
  Basis Set: CC-PVTZ
  Basis Set:
  @DF-RHF Final Energy:  -305.98655576143744
    Total Energy =                       -305.9865557614374438
  Basis Set: CC-PVTZ
  Basis Set:
  Basis Set: CC-PVTZ
  Basis Set:
  @DF-RHF Final Energy:  -305.98689017976926
    Total Energy =                       -305.9868901797696026
  Basis Set: CC-PVTZ
  Basis Set:
  Basis Set: CC-PVTZ
  Basis Set:
  @DF-RHF Final Energy:  -305.98690427740274
    Total Energy =                       -305.9869042774029140
  Basis Set: CC-PVTZ
  Basis Set:
  Charge       = 0
  Multiplicity = 1
  Basis Set: CC-PVTZ
  Basis Set:

    Orbital Energies (a.u.)
    -----------------------

    Doubly Occupied:

       1A    -20.598696     2A    -20.533522     3A    -11.365292
       4A    -11.279252     5A    -11.236805     6A    -11.216794
       7A     -1.473536     8A     -1.366253     9A     -1.065209
      10A     -0.981331    11A     -0.879486    12A     -0.772434
      13A     -0.702157    14A     -0.685490    15A     -0.675601
      16A     -0.621144    17A     -0.603658    18A     -0.552907
      19A     -0.539114    20A     -0.519383    21A     -0.515668
      22A     -0.497545    23A     -0.461191    24A     -0.441436

  @DF-RHF Final Energy:  -305.98690480230346

   => Energetics <=

    Nuclear Repulsion Energy =            247.5723613884222232
    One-Electron Energy =                -907.9507232870960252
    Two-Electron Energy =                 354.3914570963704023
    DFT Exchange-Correlation Energy =       0.0000000000000000
    Empirical Dispersion Energy =           0.0000000000000000
    PCM Polarization Energy =               0.0000000000000000
    EFP Energy =                            0.0000000000000000
    Total Energy =                       -305.9869048023033997
    Molecular point group: c1
  Basis Set: CC-PVTZ
  Basis Set:

  -Total Gradient:
     Atom            X                  Y                   Z
    ------   -----------------  -----------------  -----------------
       1        0.000042904161     0.000037529791    -0.000016282704
       2        0.000234620256    -0.000343834364    -0.001196361605
       3        0.000610049287    -0.000841823448     0.000937206197
       4       -0.000284257566     0.000369892415     0.000832143625
       5        0.000016323829    -0.000007746567    -0.000003092804
       6       -0.000589315001     0.000793834018    -0.000549631775
       7       -0.000005601116    -0.000023321991     0.000011450036
       8       -0.000005057096     0.000016264944    -0.000018100452
       9       -0.000005520922    -0.000010293285     0.000000740072
      10        0.000003255015     0.000002911934     0.000010295185
      11       -0.000001008760     0.000003714050    -0.000000528008
      12       -0.000005363620    -0.000002910250    -0.000019951700
      13        0.000002572685    -0.000008691820     0.000003237913
      14       -0.000013601150     0.000014474576     0.000008876023

  **** Optimization is complete! (in 6 steps) ****
    Final optimized geometry and variables:
    Molecular point group: c1

    Geometry (in Angstrom), charge = 0, multiplicity = 1:

    O            0.089929227415     1.127113693150    -0.608832933229
    C            0.043483989137     0.045909694583    -0.128244368665
    C           -1.172847210526    -0.846483599367    -0.134443324696
    O            1.076185676248    -0.528131772565     0.463938714542
    C           -2.479533898737    -0.063982777277    -0.101483907921
    H           -1.114719365670    -1.427385316698    -1.050374142449
    H           -1.101387724822    -1.544392907992     0.687753328048
    H           -2.536670259994     0.626053635838    -0.931133812494
    H           -3.321356200027    -0.742994549591    -0.157203829040
    H           -2.568809272659     0.508120507163     0.814107974591
    C            2.292759406979     0.191848310956     0.485447075441
    H            2.634217173922     0.393008336292    -0.519138345224
    H            3.000914064846    -0.436343678547     1.000901481807
    H            2.171748109117     1.127479552237     1.010657448113

  Mulliken Charges: (a.u.)
   Center  Symbol    Alpha    Beta     Spin     Total
       1     O     4.19982  4.19982  0.00000 -0.39964
       2     C     2.80603  2.80603  0.00000  0.38793
       3     C     3.08957  3.08957  0.00000 -0.17914
       4     O     4.14481  4.14481  0.00000 -0.28961
       5     C     3.14197  3.14197  0.00000 -0.28394
       6     H     0.44580  0.44580  0.00000  0.10840
       7     H     0.43825  0.43825  0.00000  0.12351
       8     H     0.44255  0.44255  0.00000  0.11490
       9     H     0.45004  0.45004  0.00000  0.09991
      10     H     0.45284  0.45284  0.00000  0.09431
      11     C     3.03454  3.03454  0.00000 -0.06907
      12     H     0.45446  0.45446  0.00000  0.09108
      13     H     0.44524  0.44524  0.00000  0.10952
      14     H     0.45408  0.45408  0.00000  0.09184

   Total alpha = 24.00000, Total beta = 24.00000, Total charge = -0.00000

*** Psi4 exiting successfully. Buy a developer a beer!
