  ==> Input File <==

--------------------------------------------------------------------------
set {
	reference rhf
	basis cc-pvtz
}

set_num_threads( 4 )
memory 2 gb

molecule MOL {
0 1

H	 -3.268214	 -0.875720	 0.463107
C	 -2.806015	 0.000007	 0.024886
N	 -1.391133	 0.000016	 0.301321
H	 -3.029448	 0.000055	 -1.045738
H	 -3.268126	 0.875758	 0.463150
C	 -0.654356	 -0.860068	 -0.599229
C	 -1.099772	 -0.328024	 1.680100
H	 -0.970285	 -1.902981	 -0.502421
H	 -0.852285	 -0.551779	 -1.618968
C	 0.835890	 -0.768475	 -0.329431
H	 -1.622865	 0.368674	 2.324363
H	 -1.446061	 -1.334669	 1.932287
C	 0.390473	 -0.236431	 1.949898
H	 1.358983	 -1.465173	 -0.973694
H	 1.182179	 0.238169	 -0.581618
N	 1.127251	 -1.096515	 1.049348
H	 0.588403	 -0.544720	 2.969636
H	 0.706403	 0.806481	 1.853089
C	 2.542133	 -1.096506	 1.325783
H	 3.046349	 -1.797666	 0.672557
H	 2.718873	 -1.406599	 2.348117
H	 3.001974	 -0.114027	 1.186360

	symmetry c1
}
set optking {
	frozen_dihedral = ("
		6 3 2 4
	")
}

ee = optimize('scf')
oeprop('DIPOLE', 'QUADRUPOLE', 'MULLIKEN_CHARGES')
f=open( 'psi4out.xyz', 'w' )
f.write( "22  " )
f.write( str(ee) + "\n" )
f.write( MOL.save_string_xyz() )
f.close()
--------------------------------------------------------------------------

    Molecular point group: c1
  Charge       = 0
  Multiplicity = 1
  Basis Set: CC-PVTZ
  Basis Set:
  @DF-RHF Final Energy:  -344.34880475634122
    Total Energy =                       -344.3488047563414511
    Molecular point group: c1
  Basis Set: CC-PVTZ
  Basis Set:
  Basis Set: CC-PVTZ
  Basis Set:
  @DF-RHF Final Energy:  -344.34954870607993
    Total Energy =                       -344.3495487060797586
  Basis Set: CC-PVTZ
  Basis Set:
  Basis Set: CC-PVTZ
  Basis Set:
  @DF-RHF Final Energy:  -344.34963573958657
    Total Energy =                       -344.3496357395862333
  Basis Set: CC-PVTZ
  Basis Set:
  Basis Set: CC-PVTZ
  Basis Set:
  @DF-RHF Final Energy:  -344.34963871407945
    Total Energy =                       -344.3496387140793331
  Basis Set: CC-PVTZ
  Basis Set:
  Charge       = 0
  Multiplicity = 1
  Basis Set: CC-PVTZ
  Basis Set:

    Orbital Energies (a.u.)
    -----------------------

    Doubly Occupied:

       1A    -15.537653     2A    -15.536184     3A    -11.237700
       4A    -11.237535     5A    -11.236954     6A    -11.236876
       7A    -11.234365     8A    -11.234260     9A     -1.257123
      10A     -1.205995    11A     -1.026216    12A     -0.992891
      13A     -0.912386    14A     -0.868610    15A     -0.836335
      16A     -0.754730    17A     -0.666880    18A     -0.638322
      19A     -0.632722    20A     -0.627433    21A     -0.622467
      22A     -0.581970    23A     -0.551099    24A     -0.546897
      25A     -0.543138    26A     -0.517671    27A     -0.497106
      28A     -0.490659    29A     -0.467325    30A     -0.457613
      31A     -0.351971    32A     -0.345094

  @DF-RHF Final Energy:  -344.34963906739392

   => Energetics <=

    Nuclear Repulsion Energy =            421.8828556895898600
    One-Electron Energy =               -1302.6966211460426166
    Two-Electron Energy =                 536.4641263890588334
    DFT Exchange-Correlation Energy =       0.0000000000000000
    Empirical Dispersion Energy =           0.0000000000000000
    PCM Polarization Energy =               0.0000000000000000
    EFP Energy =                            0.0000000000000000
    Total Energy =                       -344.3496390673939231
    Molecular point group: c1
  Basis Set: CC-PVTZ
  Basis Set:

  -Total Gradient:
     Atom            X                  Y                   Z
    ------   -----------------  -----------------  -----------------
       1       -0.000008541870    -0.000002838346     0.000006842661
       2        0.000192333317     0.005074424291    -0.000562031529
       3       -0.000490635698    -0.003675026986     0.002222271238
       4       -0.000055525209    -0.003391657663    -0.000073011225
       5        0.000021108482    -0.000022300928     0.000007958651
       6        0.000349670183     0.001993090863    -0.001603194559
       7       -0.000008845823     0.000007775217     0.000014397176
       8       -0.000007522417     0.000013605658     0.000006239912
       9        0.000003444382     0.000001560690     0.000002167159
      10        0.000009074531     0.000007419973    -0.000003700027
      11       -0.000005902902     0.000000037130    -0.000001438698
      12        0.000007855868     0.000011099609    -0.000011171708
      13       -0.000006513125    -0.000011778631    -0.000000407133
      14        0.000005453635    -0.000001030929     0.000000671864
      15       -0.000000410202     0.000001743559    -0.000003085742
      16       -0.000004630123    -0.000000880505    -0.000006356466
      17        0.000007309047     0.000000016094     0.000005847239
      18       -0.000005666267    -0.000006395300    -0.000001849072
      19        0.000001200247     0.000000230479    -0.000000267892
      20       -0.000003395784     0.000001107878     0.000000409628
      21        0.000000081637    -0.000000198781     0.000000787374
      22        0.000000058085    -0.000000003371    -0.000001078851

  **** Optimization is complete! (in 5 steps) ****
    Final optimized geometry and variables:
    Molecular point group: c1

    Geometry (in Angstrom), charge = 0, multiplicity = 1:

    H           -3.198449601301    -0.325953371878    -0.258189490155
    C           -2.679219346876     0.557222676074    -0.641852500510
    N           -1.262945999321     0.525990470929    -0.372222685172
    H           -2.852425645178     0.582118273461    -1.709733533844
    H           -3.132360372968     1.432414167152    -0.192560897703
    C           -0.521997557097    -0.321355589552    -1.279063902416
    C           -0.965616357205     0.219989560633     1.007705281142
    H           -0.826474078696    -1.369217676182    -1.194117695705
    H           -0.719561898945    -0.004358745727    -2.295759154568
    C            0.967445181233    -0.218924270036    -1.006264424123
    H           -1.490324091312     0.923517405140     1.644035317786
    H           -1.308850944589    -0.783967149237     1.275035992038
    C            0.525054155450     0.319188309600     1.272133687729
    H            1.496695674702    -0.911792810711    -1.649730173252
    H            1.306130243360     0.790440005909    -1.258550217170
    N            1.260817274799    -0.543190945764     0.373000313904
    H            0.728061159387     0.017056490748     2.292796319768
    H            0.837347986264     1.362598413075     1.168385738774
    C            2.676025102334    -0.541253007424     0.647178027178
    H            3.179741288882    -1.244318163179    -0.004452703527
    H            2.854713484783    -0.847637438671     1.670341557447
    H            3.135197474932     0.441063111945     0.503645001782

  Mulliken Charges: (a.u.)
   Center  Symbol    Alpha    Beta     Spin     Total
       1     H     0.46976  0.46976  0.00000  0.06048
       2     C     3.09753  3.09753  0.00000 -0.19506
       3     N     3.61286  3.61286  0.00000 -0.22572
       4     H     0.45370  0.45370  0.00000  0.09260
       5     H     0.45043  0.45043  0.00000  0.09914
       6     C     3.03363  3.03363  0.00000 -0.06726
       7     C     3.03523  3.03523  0.00000 -0.07046
       8     H     0.46967  0.46967  0.00000  0.06065
       9     H     0.45387  0.45387  0.00000  0.09227
      10     C     3.03606  3.03606  0.00000 -0.07211
      11     H     0.45424  0.45424  0.00000  0.09152
      12     H     0.46771  0.46771  0.00000  0.06457
      13     C     3.03560  3.03560  0.00000 -0.07119
      14     H     0.45391  0.45391  0.00000  0.09219
      15     H     0.46831  0.46831  0.00000  0.06338
      16     N     3.61313  3.61313  0.00000 -0.22625
      17     H     0.45383  0.45383  0.00000  0.09233
      18     H     0.46817  0.46817  0.00000  0.06365
      19     C     3.09838  3.09838  0.00000 -0.19676
      20     H     0.45193  0.45193  0.00000  0.09613
      21     H     0.45193  0.45193  0.00000  0.09613
      22     H     0.47012  0.47012  0.00000  0.05976

   Total alpha = 32.00000, Total beta = 32.00000, Total charge = -0.00000
