                              Psi4 1.0.54 Driver

  ==> Input File <==

--------------------------------------------------------------------------
set {
	reference rhf
	basis cc-pvtz
}

set_num_threads( 4 )
memory 2 gb

molecule MOL {
0 1

O	 -2.817697	 1.304178	 0.001046
C	 -2.664672	 0.129869	 0.003507
C	 -3.797908	 -0.860100	 -0.001145
O	 -1.481217	 -0.452708	 0.001092
H	 -4.408836	 -0.679689	 -0.875387
H	 -3.443486	 -1.878443	 -0.002770
H	 -4.412123	 -0.683688	 0.871605
C	 -0.332055	 0.384012	 -0.000250
C	 0.892252	 -0.506059	 -0.000295
H	 -0.360822	 1.020205	 -0.874146
H	 -0.359817	 1.021310	 0.872861
C	 2.145699	 0.241037	 -0.446477
H	 0.712094	 -1.352175	 -0.655506
H	 1.035508	 -0.907516	 0.997691
C	 3.393990	 -0.636938	 -0.453951
H	 1.989785	 0.648426	 -1.442319
H	 2.312306	 1.092906	 0.208149
C	 4.646996	 0.109555	 -0.898622
H	 3.229375	 -1.487632	 -1.109144
H	 3.550909	 -1.044486	 0.540719
H	 4.533736	 0.500137	 -1.904337
H	 5.513738	 -0.541005	 -0.892615
H	 4.857573	 0.946923	 -0.241868

	symmetry c1
}
set optking {
	frozen_dihedral = ("
		13 9 8 10
	")
}

ee,wfn = optimize('scf', return_wfn=True)
oeprop( wfn, 'DIPOLE', 'QUADRUPOLE', 'MULLIKEN_CHARGES')
f=open( 'psi4out.xyz', 'w' )
f.write( "23  " )
f.write( str(ee) + "\n" )
f.write( MOL.save_string_xyz() )
f.close()
--------------------------------------------------------------------------

    Molecular point group: c1
  Charge       = 0
  Multiplicity = 1
  Basis Set: CC-PVTZ
  Basis Set:
  @DF-RHF Final Energy:  -423.13350407390197
    Total Energy =                       -423.1335040739020315
    Molecular point group: c1
  Basis Set: CC-PVTZ
  Basis Set:
  Basis Set: CC-PVTZ
  Basis Set:
  @DF-RHF Final Energy:  -423.13342474992857
    Total Energy =                       -423.1334247499282810
  Basis Set: CC-PVTZ
  Basis Set:
  Basis Set: CC-PVTZ
  Basis Set:
  @DF-RHF Final Energy:  -423.13305566607886
    Total Energy =                       -423.1330556660789171
  Basis Set: CC-PVTZ
  Basis Set:
  Basis Set: CC-PVTZ
  Basis Set:
  @DF-RHF Final Energy:  -423.13368666642430
    Total Energy =                       -423.1336866664246372
  Basis Set: CC-PVTZ
  Basis Set:
  Basis Set: CC-PVTZ
  Basis Set:
  @DF-RHF Final Energy:  -423.13369865156955
    Total Energy =                       -423.1336986515697163
  Basis Set: CC-PVTZ
  Basis Set:
  Basis Set: CC-PVTZ
  Basis Set:
  @DF-RHF Final Energy:  -423.13370270094987
    Total Energy =                       -423.1337027009494705
  Basis Set: CC-PVTZ
  Basis Set:
  Charge       = 0
  Multiplicity = 1
  Basis Set: CC-PVTZ
  Basis Set:

    Orbital Energies (a.u.)
    -----------------------

    Doubly Occupied:

       1A    -20.596587     2A    -20.529896     3A    -11.366720
       4A    -11.279204     5A    -11.230904     6A    -11.222094
       7A    -11.221327     8A    -11.219358     9A    -11.210855
      10A     -1.471722    11A     -1.364559    12A     -1.094930
      13A     -1.043185    14A     -1.004301    15A     -0.931806
      16A     -0.842667    17A     -0.803292    18A     -0.777580
      19A     -0.693425    20A     -0.688278    21A     -0.671695
      22A     -0.647821    23A     -0.606905    24A     -0.588824
      25A     -0.584387    26A     -0.567416    27A     -0.559843
      28A     -0.539050    29A     -0.524255    30A     -0.505879
      31A     -0.491693    32A     -0.478214    33A     -0.471043
      34A     -0.466660    35A     -0.453894    36A     -0.439289

  @DF-RHF Final Energy:  -423.13370298956085

   => Energetics <=

    Nuclear Repulsion Energy =            450.4377455291883621
    One-Electron Energy =               -1468.7637842126564465
    Two-Electron Energy =                 595.1923356939071255
    DFT Exchange-Correlation Energy =       0.0000000000000000
    Empirical Dispersion Energy =           0.0000000000000000
    PCM Polarization Energy =               0.0000000000000000
    EFP Energy =                            0.0000000000000000
    Total Energy =                       -423.1337029895610158
    Molecular point group: c1
  Basis Set: CC-PVTZ
  Basis Set:

  -Total Gradient:
     Atom            X                  Y                   Z
    ------   -----------------  -----------------  -----------------
       1        0.000036930492    -0.000081504689    -0.000007978160
       2        0.000007708762     0.000039034777     0.000016538046
       3       -0.000015903912    -0.000009185446    -0.000015163136
       4       -0.000044819204     0.000029075246    -0.000006224272
       5        0.000016021424    -0.000008444234     0.000027971453
       6       -0.000012845055     0.000022627562     0.000001091872
       7        0.000011809705    -0.000007119359    -0.000020409023
       8       -0.002522461255    -0.003443600258    -0.001636788284
       9        0.002022847495     0.002875150462    -0.002738774592
      10        0.001786439662     0.002392356712     0.001774924906
      11        0.000000984657     0.000000472576     0.000004801033
      12        0.000005637695    -0.000001167003    -0.000001670886
      13       -0.001273055664    -0.001818588138     0.002590252679
      14       -0.000002355528     0.000009711070    -0.000005147964
      15       -0.000010503040     0.000005927331     0.000025849920
      16        0.000015037888    -0.000003136403     0.000020333771
      17       -0.000003052047    -0.000022193185    -0.000010341562
      18        0.000006588039    -0.000000849481    -0.000023877265
      19       -0.000003480703     0.000012270875     0.000015265265
      20       -0.000008538106     0.000008013092    -0.000007682491
      21        0.000007084032     0.000004838555     0.000009200920
      22       -0.000019018350     0.000011142240    -0.000007416769
      23       -0.000001056994    -0.000014832301    -0.000004755461

  **** Optimization is complete! (in 7 steps) ****
    Final optimized geometry and variables:
    Molecular point group: c1

    Geometry (in Angstrom), charge = 0, multiplicity = 1:

    O           -2.794580636884     1.334683705429     0.250558657668
    C           -2.651096821125     0.159621861711     0.224452642989
    C           -3.791150882754    -0.822348771307     0.248599110871
    O           -1.472730720159    -0.431326303489     0.170028878845
    H           -4.434016425745    -0.623911337901    -0.598407611543
    H           -3.444814845510    -1.842993146692     0.217525176127
    H           -4.369728577995    -0.655404315166     1.147213308027
    C           -0.319581134206     0.395668311935     0.146092139924
    C            0.907246427591    -0.495501860049     0.121712568781
    H           -0.354507533534     1.050801914107    -0.713978410373
    H           -0.324273096563     1.030490281408     1.021783738752
    C            2.169037580661     0.260965180802    -0.278553842606
    H            0.723200396869    -1.327320913092    -0.549923938011
    H            1.039975212779    -0.935520834433     1.105716531569
    C            3.425340552664    -0.603882552956    -0.234174486685
    H            2.045437565319     0.662656551411    -1.280919393283
    H            2.302208285603     1.117700653999     0.378132457602
    C            4.684214701050     0.149472822823    -0.649763408643
    H            3.289542846218    -1.465019446716    -0.882483471330
    H            3.555018233739    -0.996399214033     0.770386838488
    H            4.598880711708     0.525404627800    -1.663811505923
    H            5.556616803890    -0.492132005302    -0.607685382312
    H            4.865854159013     0.997697505098     0.001761235712

  Mulliken Charges: (a.u.)
   Center  Symbol    Alpha    Beta     Spin     Total
       1     O     4.20207  4.20207  0.00000 -0.40414
       2     C     2.81357  2.81357  0.00000  0.37287
       3     C     3.13978  3.13978  0.00000 -0.27957
       4     O     4.14476  4.14476  0.00000 -0.28952
       5     H     0.44209  0.44209  0.00000  0.11581
       6     H     0.44187  0.44187  0.00000  0.11626
       7     H     0.44209  0.44209  0.00000  0.11581
       8     C     2.97906  2.97906  0.00000  0.04187
       9     C     3.08340  3.08340  0.00000 -0.16680
      10     H     0.45595  0.45595  0.00000  0.08809
      11     H     0.45325  0.45325  0.00000  0.09349
      12     C     3.09670  3.09670  0.00000 -0.19339
      13     H     0.44948  0.44948  0.00000  0.10105
      14     H     0.45213  0.45213  0.00000  0.09574
      15     C     3.08524  3.08524  0.00000 -0.17048
      16     H     0.45239  0.45239  0.00000  0.09522
      17     H     0.45301  0.45301  0.00000  0.09398
      18     C     3.14953  3.14953  0.00000 -0.29905
      19     H     0.45343  0.45343  0.00000  0.09314
      20     H     0.45334  0.45334  0.00000  0.09332
      21     H     0.45456  0.45456  0.00000  0.09088
      22     H     0.44770  0.44770  0.00000  0.10459
      23     H     0.45459  0.45459  0.00000  0.09082

   Total alpha = 36.00000, Total beta = 36.00000, Total charge =  0.00000

*** Psi4 exiting successfully. Buy a developer a beer!
