                              Psi4 1.0.54 Driver

  ==> Input File <==

--------------------------------------------------------------------------
set {
	reference rhf
	basis cc-pvtz
}

set_num_threads( 4 )
memory 2 gb

molecule MOL {
0 1

H	 -2.182299	 1.369084	 -1.175776
C	 -1.350785	 2.003521	 -0.899560
C	 -0.040414	 1.232540	 -0.936063
H	 -1.548557	 2.386128	 0.092766
H	 -1.314268	 2.839388	 -1.587960
C	 0.000000	 0.039916	 0.000014
H	 0.795333	 1.878973	 -0.682000
H	 0.167144	 0.870781	 -1.939528
C	 1.286532	 -0.763243	 0.000268
O	 -0.921273	 -0.248000	 0.691924
C	 2.547023	 0.087626	 -0.000114
H	 1.264245	 -1.421103	 -0.864380
H	 1.264290	 -1.420353	 0.865489
H	 2.584452	 0.725630	 -0.872909
H	 3.427035	 -0.544422	 0.000125
H	 2.584484	 0.726356	 0.872143

	symmetry c1
}
set optking {
	frozen_dihedral = ("
		3 6 9 12
	")
}

ee,wfn = optimize('scf', return_wfn=True)
oeprop( wfn, 'DIPOLE', 'QUADRUPOLE', 'MULLIKEN_CHARGES')
f=open( 'psi4out.xyz', 'w' )
f.write( "16  " )
f.write( str(ee) + "\n" )
f.write( MOL.save_string_xyz() )
f.close()
--------------------------------------------------------------------------

    Molecular point group: c1
  Charge       = 0
  Multiplicity = 1
  Basis Set: CC-PVTZ
  Basis Set:
  @DF-RHF Final Energy:  -270.12741156301558
    Total Energy =                       -270.1274115630152437
    Molecular point group: c1
  Basis Set: CC-PVTZ
  Basis Set:
  Basis Set: CC-PVTZ
  Basis Set:
  @DF-RHF Final Energy:  -270.06247544013763
    Total Energy =                       -270.0624754401377459
  Basis Set: CC-PVTZ
  Basis Set:
  Basis Set: CC-PVTZ
  Basis Set:
  @DF-RHF Final Energy:  -270.12427216575543
    Total Energy =                       -270.1242721657554284
  Basis Set: CC-PVTZ
  Basis Set:
  Basis Set: CC-PVTZ
  Basis Set:
  @DF-RHF Final Energy:  -270.12849665854094
    Total Energy =                       -270.1284966585407119
  Basis Set: CC-PVTZ
  Basis Set:
  @DF-RHF Final Energy:  -270.12481142884508
    Total Energy =                       -270.1248114288447368
  @DF-RHF Final Energy:  -270.12661701733089
    Total Energy =                       -270.1266170173308865
  Basis Set: CC-PVTZ
  Basis Set:
  @DF-RHF Final Energy:  -270.12881858067061
    Total Energy =                       -270.1288185806707816
  Basis Set: CC-PVTZ
  Basis Set:
  Basis Set: CC-PVTZ
  Basis Set:
  @DF-RHF Final Energy:  -270.12884258077509
    Total Energy =                       -270.1288425807748581
  Basis Set: CC-PVTZ
  Basis Set:
  Basis Set: CC-PVTZ
  Basis Set:
  @DF-RHF Final Energy:  -270.12884400254012
    Total Energy =                       -270.1288440025401201
  Basis Set: CC-PVTZ
  Basis Set:
  Charge       = 0
  Multiplicity = 1
  Basis Set: CC-PVTZ
  Basis Set:

    Orbital Energies (a.u.)
    -----------------------

    Doubly Occupied:

       1A    -20.537157     2A    -11.317524     3A    -11.232145
       4A    -11.231416     5A    -11.226881     6A    -11.211478
       7A     -1.397483     8A     -1.074000     9A     -1.036061
      10A     -0.909336    11A     -0.865724    12A     -0.724380
      13A     -0.661332    14A     -0.642495    15A     -0.633763
      16A     -0.609420    17A     -0.557129    18A     -0.544383
      19A     -0.535889    20A     -0.511456    21A     -0.507109
      22A     -0.497337    23A     -0.481354    24A     -0.398569

  @DF-RHF Final Energy:  -270.12884414868114

   => Energetics <=

    Nuclear Repulsion Energy =            240.9298191986555935
    One-Electron Energy =                -843.4296840757060636
    Two-Electron Energy =                 332.3710207283693876
    DFT Exchange-Correlation Energy =       0.0000000000000000
    Empirical Dispersion Energy =           0.0000000000000000
    PCM Polarization Energy =               0.0000000000000000
    EFP Energy =                            0.0000000000000000
    Total Energy =                       -270.1288441486810257
    Molecular point group: c1
  Basis Set: CC-PVTZ
  Basis Set:

  -Total Gradient:
     Atom            X                  Y                   Z
    ------   -----------------  -----------------  -----------------
       1       -0.000002116411     0.000005447759     0.000000218946
       2        0.000002727165    -0.000010329328     0.000009467449
       3        0.000314990942     0.000636357206     0.000207273019
       4       -0.000001840510    -0.000001374943    -0.000005292446
       5       -0.000000763194     0.000001614639     0.000002797136
       6       -0.000461361487    -0.001022087972    -0.000145895105
       7        0.000000397137    -0.000007973737     0.000004655747
       8        0.000001444670     0.000001621376     0.000010361256
       9        0.000150225761     0.000880955952    -0.000885911354
      10       -0.000016900086     0.000002867862    -0.000004056411
      11        0.000016973871     0.000008620272    -0.000003443901
      12        0.000015231609    -0.000493328843     0.000811830967
      13       -0.000004781821     0.000001985967    -0.000000769759
      14        0.000006985117     0.000000646312     0.000004675865
      15       -0.000017463254     0.000002536047     0.000003030030
      16       -0.000003749508    -0.000007558569    -0.000008941440

  **** Optimization is complete! (in 10 steps) ****
    Final optimized geometry and variables:
    Molecular point group: c1

    Geometry (in Angstrom), charge = 0, multiplicity = 1:

    H           -2.795203517985    -0.086357646119    -0.130476574761
    C           -2.235038103581     0.821647875459    -0.311849132700
    C           -0.797078913831     0.509525056360    -0.697050588581
    H           -2.273872564132     1.414076742955     0.591732472500
    H           -2.725109293061     1.372554302939    -1.105778657105
    C           -0.032344839069    -0.254743361642     0.365801960648
    H           -0.249632345139     1.426007359818    -0.897113755534
    H           -0.756183305331    -0.061304014926    -1.620857562260
    C            1.336130318807    -0.805437006301     0.003395500316
    O           -0.488535220875    -0.441367997272     1.447031584378
    C            2.243095765204     0.122873196371    -0.802297725432
    H            1.162700711007    -1.723922587475    -0.552839538002
    H            1.809766263681    -1.089999385917     0.932747646715
    H            1.833419528349     0.350741353369    -1.778087043022
    H            3.207400454662    -0.345393555027    -0.953830777538
    H            2.410913074805     1.058735708308    -0.281290747818

  Mulliken Charges: (a.u.)
   Center  Symbol    Alpha    Beta     Spin     Total
       1     H     0.44930  0.44930  0.00000  0.10139
       2     C     3.14205  3.14205  0.00000 -0.28411
       3     C     3.10809  3.10809  0.00000 -0.21618
       4     H     0.44584  0.44584  0.00000  0.10832
       5     H     0.45091  0.45091  0.00000  0.09818
       6     C     2.86582  2.86582  0.00000  0.26836
       7     H     0.44327  0.44327  0.00000  0.11346
       8     H     0.44391  0.44391  0.00000  0.11217
       9     C     3.09411  3.09411  0.00000 -0.18822
      10     O     4.17326  4.17326  0.00000 -0.34653
      11     C     3.15820  3.15820  0.00000 -0.31641
      12     H     0.44798  0.44798  0.00000  0.10405
      13     H     0.43630  0.43630  0.00000  0.12739
      14     H     0.45143  0.45143  0.00000  0.09714
      15     H     0.44144  0.44144  0.00000  0.11712
      16     H     0.44808  0.44808  0.00000  0.10385

   Total alpha = 24.00000, Total beta = 24.00000, Total charge =  0.00000

*** Psi4 exiting successfully. Buy a developer a beer!
