  ==> Input File <==

--------------------------------------------------------------------------
set {
	reference rhf
	basis 6-31G*
}

set_num_threads( 1 )
memory 2 gb

molecule MOL {
0 1

O	 3.225979	 0.970355	 -0.599647
C	 2.701189	 0.057885	 -0.047330
C	 1.245376	 -0.013843	 0.345420
O	 3.347903	 -1.046386	 0.304773
C	 0.455112	 1.231400	 -0.050772
H	 0.838542	 -0.913825	 -0.103701
H	 1.208210	 -0.175333	 1.419774
C	 -0.998893	 1.219485	 0.433193
H	 0.482531	 1.345121	 -1.130325
H	 0.957290	 2.103070	 0.354729
C	 -1.883438	 0.145884	 -0.207175
H	 -1.431207	 2.195402	 0.224832
H	 -1.019646	 1.105716	 1.516076
C	 -3.347647	 0.245583	 0.225435
H	 -1.822183	 0.231698	 -1.291012
H	 -1.510341	 -0.844814	 0.042401
C	 -4.314057	 0.434342	 -0.945272
H	 -3.461437	 1.074884	 0.921528
H	 -3.622512	 -0.652906	 0.775769
C	 -5.773796	 0.536830	 -0.504411
H	 -4.040210	 1.331208	 -1.496890
H	 -4.204887	 -0.395869	 -1.639974
H	 -6.433892	 0.669998	 -1.355966
H	 -5.922999	 1.379675	 0.164578
H	 -6.088656	 -0.360486	 0.020909
C	 4.728119	 -1.109107	 -0.004993
H	 4.882018	 -1.033965	 -1.071845
H	 5.068212	 -2.067527	 0.355250
H	 5.265056	 -0.311663	 0.488280

	symmetry c1
}
set optking {
	frozen_dihedral = ("
		21 17 14 11,
		15 11 8 5,
		6 3 5 9,
		11 8 5 9,
		2 4 26 27,
		1 2 4 26,
		6 3 2 1
	")
}

ee = energy('scf')
oeprop('DIPOLE', 'QUADRUPOLE', 'MULLIKEN_CHARGES')
f=open( 'psi4out.xyz', 'w' )
f.write( "29  " )
f.write( str(ee) + "\n" )
f.write( MOL.save_string_xyz() )
f.close()
--------------------------------------------------------------------------

    Molecular point group: c1

    Geometry (in Angstrom), charge = 0, multiplicity = 1:

       Center              X                  Y                   Z               Mass
    ------------   -----------------  -----------------  -----------------  -----------------
           O          3.239430212825     0.739644508881    -0.500949769027    15.994914619560
           C          2.714640212825    -0.172825491119     0.051367230973    12.000000000000
           C          1.258827212825    -0.244553491119     0.444117230973    12.000000000000
           O          3.361354212825    -1.277096491119     0.403470230973    15.994914619560
           C          0.468563212825     1.000689508881     0.047925230973    12.000000000000
           H          0.851993212825    -1.144535491119    -0.005003769027     1.007825032070
           H          1.221661212825    -0.406043491119     1.518471230973     1.007825032070
           C         -0.985441787175     0.988774508881     0.531890230973    12.000000000000
           H          0.495982212825     1.114410508881    -1.031627769027     1.007825032070
           H          0.970741212825     1.872359508881     0.453426230973     1.007825032070
           C         -1.869986787175    -0.084826491119    -0.108477769027    12.000000000000
           H         -1.417755787175     1.964691508881     0.323529230973     1.007825032070
           H         -1.006194787175     0.875005508881     1.614773230973     1.007825032070
           C         -3.334195787175     0.014872508881     0.324132230973    12.000000000000
           H         -1.808731787175     0.000987508881    -1.192314769027     1.007825032070
           H         -1.496889787175    -1.075524491119     0.141098230973     1.007825032070
           C         -4.300605787175     0.203631508881    -0.846574769027    12.000000000000
           H         -3.447985787175     0.844173508881     1.020225230973     1.007825032070
           H         -3.609060787175    -0.883616491119     0.874466230973     1.007825032070
           C         -5.760344787175     0.306119508881    -0.405713769027    12.000000000000
           H         -4.026758787175     1.100497508881    -1.398192769027     1.007825032070
           H         -4.191435787175    -0.626579491119    -1.541276769027     1.007825032070
           H         -6.420440787175     0.439287508881    -1.257268769027     1.007825032070
           H         -5.909547787175     1.148964508881     0.263275230973     1.007825032070
           H         -6.075204787175    -0.591196491119     0.119606230973     1.007825032070
           C          4.741570212825    -1.339817491119     0.093704230973    12.000000000000
           H          4.895469212825    -1.264675491119    -0.973147769027     1.007825032070
           H          5.081663212825    -2.298237491119     0.453947230973     1.007825032070
           H          5.278507212825    -0.542373491119     0.586977230973     1.007825032070

  Charge       = 0
  Multiplicity = 1
  Basis Set: 6-31G*
  Basis Set:

    Orbital Energies (a.u.)
    -----------------------

    Doubly Occupied:

       1A    -20.603271     2A    -20.545083     3A    -11.371884
       4A    -11.280604     5A    -11.234644     6A    -11.218669
       7A    -11.217929     8A    -11.215965     9A    -11.214329
      10A    -11.212753    11A    -11.208394    12A     -1.468973
      13A     -1.362408    14A     -1.098171    15A     -1.066494
      16A     -1.018855    17A     -0.977008    18A     -0.928362
      19A     -0.861346    20A     -0.802767    21A     -0.788412
      22A     -0.763918    23A     -0.700948    24A     -0.682192
      25A     -0.671773    26A     -0.643308    27A     -0.626712
      28A     -0.610106    29A     -0.597472    30A     -0.579561
      31A     -0.563035    32A     -0.555496    33A     -0.533080
      34A     -0.529244    35A     -0.520575    36A     -0.506081
      37A     -0.496036    38A     -0.476849    39A     -0.473673
      40A     -0.462673    41A     -0.455876    42A     -0.448952
      43A     -0.441619    44A     -0.435634

  @DF-RHF Final Energy:  -501.03846700997121

   => Energetics <=

    Nuclear Repulsion Energy =            610.8011957722727630
    One-Electron Energy =               -1892.7374190908028595
    Two-Electron Energy =                 780.8977563085567226
    DFT Exchange-Correlation Energy =       0.0000000000000000
    Empirical Dispersion Energy =           0.0000000000000000
    PCM Polarization Energy =               0.0000000000000000
    EFP Energy =                            0.0000000000000000
    Total Energy =                       -501.0384670099734876

  Mulliken Charges: (a.u.)
   Center  Symbol    Alpha    Beta     Spin     Total
       1     O     4.28598  4.28598  0.00000 -0.57195
       2     C     2.60484  2.60484  0.00000  0.79033
       3     C     3.20962  3.20962  0.00000 -0.41923
       4     O     4.30745  4.30745  0.00000 -0.61490
       5     C     3.15433  3.15433  0.00000 -0.30866
       6     H     0.39887  0.39887  0.00000  0.20225
       7     H     0.40129  0.40129  0.00000  0.19742
       8     C     3.15935  3.15935  0.00000 -0.31869
       9     H     0.41305  0.41305  0.00000  0.17390
      10     H     0.40895  0.40895  0.00000  0.18211
      11     C     3.15750  3.15750  0.00000 -0.31499
      12     H     0.41810  0.41810  0.00000  0.16379
      13     H     0.42319  0.42319  0.00000  0.15362
      14     C     3.15328  3.15328  0.00000 -0.30656
      15     H     0.41985  0.41985  0.00000  0.16029
      16     H     0.42114  0.42114  0.00000  0.15771
      17     C     3.15374  3.15374  0.00000 -0.30748
      18     H     0.42083  0.42083  0.00000  0.15834
      19     H     0.42165  0.42165  0.00000  0.15669
      20     C     3.24000  3.24000  0.00000 -0.48000
      21     H     0.42260  0.42260  0.00000  0.15481
      22     H     0.42246  0.42246  0.00000  0.15508
      23     H     0.41931  0.41931  0.00000  0.16138
      24     H     0.42163  0.42163  0.00000  0.15675
      25     H     0.42184  0.42184  0.00000  0.15631
      26     C     3.09241  3.09241  0.00000 -0.18481
      27     H     0.40909  0.40909  0.00000  0.18181
      28     H     0.40853  0.40853  0.00000  0.18293
      29     H     0.40914  0.40914  0.00000  0.18173

   Total alpha = 44.00000, Total beta = 44.00000, Total charge = -0.00000
