  ==> Input File <==

--------------------------------------------------------------------------
set {
	reference rhf
	basis 6-31G*
}

set_num_threads( 1 )
memory 2 gb

molecule MOL {
0 1

H	 -2.853136	 1.802102	 -1.084916
O	 -2.689914	 2.107033	 -0.202743
C	 -1.322376	 2.006296	 0.068649
C	 -0.793441	 0.596080	 0.058728
H	 -1.175819	 2.443273	 1.049860
H	 -0.743713	 2.609668	 -0.630004
C	 -1.530462	 -0.493172	 -0.025500
H	 0.279937	 0.512098	 0.131457
H	 -1.092586	 -1.461565	 -0.186463
H	 -2.602122	 -0.450675	 0.050101

	symmetry c1
}
set optking {
	frozen_dihedral = ("
		5 3 2 1,
		5 3 4 7
	")
}

ee = energy('scf')
oeprop('DIPOLE', 'QUADRUPOLE', 'MULLIKEN_CHARGES')
f=open( 'psi4out.xyz', 'w' )
f.write( "10  " )
f.write( str(ee) + "\n" )
f.write( MOL.save_string_xyz() )
f.close()
--------------------------------------------------------------------------

    Molecular point group: c1

    Geometry (in Angstrom), charge = 0, multiplicity = 1:

       Center              X                  Y                   Z               Mass
    ------------   -----------------  -----------------  -----------------  -----------------
           H         -1.215838524384     0.690665506362    -1.038474685941     1.007825032070
           O         -1.052616524384     0.995596506362    -0.156301685941    15.994914619560
           C          0.314921475616     0.894859506362     0.115090314059    12.000000000000
           C          0.843856475616    -0.515356493638     0.105169314059    12.000000000000
           H          0.461478475616     1.331836506362     1.096301314059     1.007825032070
           H          0.893584475616     1.498231506362    -0.583562685941     1.007825032070
           C          0.106835475616    -1.604608493638     0.020941314059    12.000000000000
           H          1.917234475616    -0.599338493638     0.177898314059     1.007825032070
           H          0.544711475616    -2.573001493638    -0.140021685941     1.007825032070
           H         -0.964824524384    -1.562111493638     0.096542314059     1.007825032070

  Charge       = 0
  Multiplicity = 1
  Basis Set: 6-31G*
  Basis Set:

    Orbital Energies (a.u.)
    -----------------------

    Doubly Occupied:

       1A    -20.560310     2A    -11.278337     3A    -11.231362
       4A    -11.219169     5A     -1.368942     6A     -1.057963
       7A     -0.928341     8A     -0.768899     9A     -0.687301
      10A     -0.660985    11A     -0.616074    12A     -0.571213
      13A     -0.536725    14A     -0.494568    15A     -0.447193
      16A     -0.362587

  @DF-RHF Final Energy:  -191.91526286251110

   => Energetics <=

    Nuclear Repulsion Energy =            119.3806382643744115
    One-Electron Energy =                -497.0118838002057942
    Two-Electron Energy =                 185.7159826733200703
    DFT Exchange-Correlation Energy =       0.0000000000000000
    Empirical Dispersion Energy =           0.0000000000000000
    PCM Polarization Energy =               0.0000000000000000
    EFP Energy =                            0.0000000000000000
    Total Energy =                       -191.9152628625113266

  Mulliken Charges: (a.u.)
   Center  Symbol    Alpha    Beta     Spin     Total
       1     H     0.28101  0.28101  0.00000  0.43799
       2     O     4.36679  4.36679  0.00000 -0.73359
       3     C     3.00065  3.00065  0.00000 -0.00129
       4     C     3.09345  3.09345  0.00000 -0.18689
       5     H     0.40896  0.40896  0.00000  0.18208
       6     H     0.42467  0.42467  0.00000  0.15066
       7     C     3.19898  3.19898  0.00000 -0.39795
       8     H     0.41018  0.41018  0.00000  0.17965
       9     H     0.41087  0.41087  0.00000  0.17826
      10     H     0.40446  0.40446  0.00000  0.19109

   Total alpha = 16.00000, Total beta = 16.00000, Total charge =  0.00000
