  ==> Input File <==

--------------------------------------------------------------------------
set {
	reference rhf
	basis 6-31G*
}

set_num_threads( 4 )
memory 2 gb

molecule MOL {
0 1

O	 0.768493	 1.271167	 0.278635
C	 0.576249	 0.131685	 -0.000108
C	 -0.766779	 -0.556801	 -0.000461
O	 1.544598	 -0.702647	 -0.356273
C	 -1.945214	 0.412366	 0.000161
H	 -0.796911	 -1.211249	 -0.867467
H	 -0.796854	 -1.212390	 0.865687
C	 -3.287791	 -0.317055	 0.000105
H	 -1.876087	 1.060580	 -0.866812
H	 -1.875822	 1.059691	 0.867761
H	 -3.394745	 -0.949193	 -0.877058
H	 -4.111778	 0.388953	 0.000015
H	 -3.394954	 -0.949187	 0.877259
C	 2.860246	 -0.180495	 -0.396720
H	 2.925604	 0.630111	 -1.108188
H	 3.493094	 -0.998787	 -0.702934
H	 3.157023	 0.177936	 0.578452

	symmetry c1
}
set optking {
	frozen_dihedral = ("
		1 2 3 6
	")
}

ee = optimize('scf')
oeprop('DIPOLE', 'QUADRUPOLE', 'MULLIKEN_CHARGES')
f=open( 'psi4out.xyz', 'w' )
f.write( "17  " )
f.write( str(ee) + "\n" )
f.write( MOL.save_string_xyz() )
f.close()
--------------------------------------------------------------------------

    Molecular point group: c1
  Charge       = 0
  Multiplicity = 1
  Basis Set: 6-31G*
  Basis Set:
  @DF-RHF Final Energy:  -344.90656811552884
    Total Energy =                       -344.9065681155287848
    Molecular point group: c1
  Basis Set: 6-31G*
  Basis Set:
  Basis Set: 6-31G*
  Basis Set:
  @DF-RHF Final Energy:  -344.90584155505888
    Total Energy =                       -344.9058415550587142
  Basis Set: 6-31G*
  Basis Set:
  Basis Set: 6-31G*
  Basis Set:
  @DF-RHF Final Energy:  -344.90665264631377
    Total Energy =                       -344.9066526463137734
  Basis Set: 6-31G*
  Basis Set:
  Basis Set: 6-31G*
  Basis Set:
  @DF-RHF Final Energy:  -344.90667586970477
    Total Energy =                       -344.9066758697047135
  Basis Set: 6-31G*
  Basis Set:
  Charge       = 0
  Multiplicity = 1
  Basis Set: 6-31G*
  Basis Set:

    Orbital Energies (a.u.)
    -----------------------

    Doubly Occupied:

       1A    -20.604457     2A    -20.545429     3A    -11.372691
       4A    -11.281155     5A    -11.235953     6A    -11.222523
       7A    -11.214782     8A     -1.469879     9A     -1.363060
      10A     -1.080697    11A     -1.001495    12A     -0.940011
      13A     -0.827484    14A     -0.767848    15A     -0.700253
      16A     -0.683308    17A     -0.672328    18A     -0.636956
      19A     -0.595098    20A     -0.576263    21A     -0.567589
      22A     -0.528127    23A     -0.522167    24A     -0.499081
      25A     -0.486979    26A     -0.478674    27A     -0.456551
      28A     -0.437757

  @DF-RHF Final Energy:  -344.90667619541301

   => Energetics <=

    Nuclear Repulsion Energy =            312.4637991241172017
    One-Electron Energy =               -1089.2037647745853519
    Two-Electron Energy =                 431.8332894550550236
    DFT Exchange-Correlation Energy =       0.0000000000000000
    Empirical Dispersion Energy =           0.0000000000000000
    PCM Polarization Energy =               0.0000000000000000
    EFP Energy =                            0.0000000000000000
    Total Energy =                       -344.9066761954130698
    Molecular point group: c1
  Basis Set: 6-31G*
  Basis Set:

  -Total Gradient:
     Atom            X                  Y                   Z
    ------   -----------------  -----------------  -----------------
       1        0.000097882447    -0.000209963920     0.000622873777
       2       -0.000100126016     0.000193647777    -0.000889896616
       3       -0.000248642035     0.000519259080    -0.000041240139
       4       -0.000006809689     0.000013663171    -0.000076229771
       5        0.000001437191     0.000000546348    -0.000052655692
       6        0.000266459153    -0.000458107734     0.000331719266
       7       -0.000018356997    -0.000029646525     0.000001348792
       8        0.000004281536    -0.000004451018     0.000009104903
       9        0.000005128889    -0.000007120657     0.000016443213
      10       -0.000003900696     0.000003370229     0.000004889439
      11        0.000003737039     0.000002090540     0.000001564562
      12        0.000001295515     0.000001602519    -0.000003495849
      13       -0.000005476860    -0.000003402774     0.000001928980
      14       -0.000000233597    -0.000050659650     0.000156413976
      15       -0.000035831681     0.000011360945    -0.000025946495
      16        0.000004124516     0.000009817001    -0.000024515905
      17        0.000035031281     0.000007994664    -0.000032306443

  **** Optimization is complete! (in 5 steps) ****
    Final optimized geometry and variables:
    Molecular point group: c1

    Geometry (in Angstrom), charge = 0, multiplicity = 1:

    O            0.766281396497     1.264996190293     0.322376646602
    C            0.578866729392     0.125323897582     0.040401847380
    C           -0.763040753976    -0.565635402038     0.040465255293
    O            1.554228604824    -0.710603437044    -0.290820705905
    C           -1.942703782506     0.402074405222     0.076402170752
    H           -0.807547323327    -1.221302813861    -0.822895463305
    H           -0.776817625120    -1.219887910907     0.909901740406
    C           -3.283996439921    -0.328759931514     0.109364934487
    H           -1.899526506210     1.052309295418    -0.791882864448
    H           -1.848605939305     1.046590547702     0.942740170536
    H           -3.413199288612    -0.959933965355    -0.765413497536
    H           -4.108410871571     0.376359886295     0.131996952971
    H           -3.367119486804    -0.961954090883     0.988355059951
    C            2.872674084733    -0.193739672014    -0.285739621242
    H            2.963247098440     0.621393870342    -0.989126168867
    H            3.511668540493    -1.012489892944    -0.577722970414
    H            3.140048225613     0.156895623666     0.700716245708

  Mulliken Charges: (a.u.)
   Center  Symbol    Alpha    Beta     Spin     Total
       1     O     4.28607  4.28607  0.00000 -0.57213
       2     C     2.60547  2.60547  0.00000  0.78906
       3     C     3.20660  3.20660  0.00000 -0.41319
       4     O     4.30683  4.30683  0.00000 -0.61367
       5     C     3.15297  3.15297  0.00000 -0.30595
       6     H     0.40116  0.40116  0.00000  0.19768
       7     H     0.40061  0.40061  0.00000  0.19879
       8     C     3.24264  3.24264  0.00000 -0.48528
       9     H     0.41413  0.41413  0.00000  0.17174
      10     H     0.40713  0.40713  0.00000  0.18575
      11     H     0.42128  0.42128  0.00000  0.15744
      12     H     0.41512  0.41512  0.00000  0.16977
      13     H     0.42112  0.42112  0.00000  0.15776
      14     C     3.09271  3.09271  0.00000 -0.18541
      15     H     0.40864  0.40864  0.00000  0.18272
      16     H     0.40835  0.40835  0.00000  0.18330
      17     H     0.40919  0.40919  0.00000  0.18162

   Total alpha = 28.00000, Total beta = 28.00000, Total charge =  0.00000
