  ==> Input File <==

--------------------------------------------------------------------------
set {
	reference rhf
	basis cc-pvtz
}

set_num_threads( 4 )
memory 2 gb

molecule MOL {
0 1

H	 1.829476	 -1.485896	 -1.036288
C	 0.986757	 -0.849320	 -1.247067
O	 0.462329	 -0.453336	 -0.000137
H	 0.254914	 -1.405833	 -1.818834
H	 1.322017	 0.006891	 -1.818681
C	 -0.590565	 0.341382	 0.000062
O	 -1.693898	 -0.053880	 0.000252
H	 -0.340426	 1.403822	 0.000200

	symmetry c1
}
set optking {
	frozen_dihedral = ("
		2 3 6 7
	")
}

ee = optimize('scf')
oeprop('DIPOLE', 'QUADRUPOLE', 'MULLIKEN_CHARGES')
f=open( 'psi4out.xyz', 'w' )
f.write( "8  " )
f.write( str(ee) + "\n" )
f.write( MOL.save_string_xyz() )
f.close()
--------------------------------------------------------------------------

    Molecular point group: c1
  Charge       = 0
  Multiplicity = 1
  Basis Set: CC-PVTZ
  Basis Set:
  @DF-RHF Final Energy:  -227.85880040280634
    Total Energy =                       -227.8588004028063949
    Molecular point group: c1
  Basis Set: CC-PVTZ
  Basis Set:
  Basis Set: CC-PVTZ
  Basis Set:
  @DF-RHF Final Energy:  -227.85785027326457
    Total Energy =                       -227.8578502732646029
  Basis Set: CC-PVTZ
  Basis Set:
  Basis Set: CC-PVTZ
  Basis Set:
  @DF-RHF Final Energy:  -227.85903274950851
    Total Energy =                       -227.8590327495085432
  Basis Set: CC-PVTZ
  Basis Set:
  Basis Set: CC-PVTZ
  Basis Set:
  @DF-RHF Final Energy:  -227.85931454775707
    Total Energy =                       -227.8593145477569806
  Basis Set: CC-PVTZ
  Basis Set:
  Basis Set: CC-PVTZ
  Basis Set:
  @DF-RHF Final Energy:  -227.85932173473458
    Total Energy =                       -227.8593217347348059
  Basis Set: CC-PVTZ
  Basis Set:
  Charge       = 0
  Multiplicity = 1
  Basis Set: CC-PVTZ
  Basis Set:

    Orbital Energies (a.u.)
    -----------------------

    Doubly Occupied:

       1A    -20.589745     2A    -20.563489     3A    -11.376418
       4A    -11.296873     5A     -1.473158     6A     -1.384909
       7A     -0.986571     8A     -0.834878     9A     -0.740757
      10A     -0.690856    11A     -0.668570    12A     -0.628384
      13A     -0.564366    14A     -0.515012    15A     -0.476271
      16A     -0.460800

  @DF-RHF Final Energy:  -227.85932224515403

   => Energetics <=

    Nuclear Repulsion Energy =            122.0647687398371204
    One-Electron Energy =                -553.3460694904044885
    Two-Electron Energy =                 203.4219785054133069
    DFT Exchange-Correlation Energy =       0.0000000000000000
    Empirical Dispersion Energy =           0.0000000000000000
    PCM Polarization Energy =               0.0000000000000000
    EFP Energy =                            0.0000000000000000
    Total Energy =                       -227.8593222451540612
    Molecular point group: c1
  Basis Set: CC-PVTZ
  Basis Set:

  -Total Gradient:
     Atom            X                  Y                   Z
    ------   -----------------  -----------------  -----------------
       1       -0.000011884968     0.000014607723     0.000018165862
       2        0.000302870913     0.000429142264    -0.000013389721
       3       -0.000455954391    -0.000636163625     0.000367060411
       4        0.000012573920    -0.000010425151    -0.000021232425
       5        0.000006626436     0.000002065857     0.000003868426
       6        0.000159586085     0.000194517809    -0.001091445834
       7       -0.000008247612     0.000023799652     0.000731857617
       8       -0.000005570383    -0.000017544530     0.000005115664

  **** Optimization is complete! (in 6 steps) ****
    Final optimized geometry and variables:
    Molecular point group: c1

    Geometry (in Angstrom), charge = 0, multiplicity = 1:

    H            2.047786376357    -1.210460285820    -0.714976661690
    C            1.187042781552    -0.593592400323    -0.912268671474
    O            0.669687680082    -0.206637225353     0.344832657024
    H            0.450937487630    -1.159554277664    -1.467346221771
    H            1.493312161437     0.272625688122    -1.488889661073
    C           -0.396782411389     0.601831786778     0.321822874989
    O           -1.505953809021     0.228184826862     0.307317859230
    H           -0.129380538828     1.657307839737     0.351447543369

  Mulliken Charges: (a.u.)
   Center  Symbol    Alpha    Beta     Spin     Total
       1     H     0.44399  0.44399  0.00000  0.11203
       2     C     3.02223  3.02223  0.00000 -0.04445
       3     O     4.15496  4.15496  0.00000 -0.30991
       4     H     0.45421  0.45421  0.00000  0.09158
       5     H     0.46664  0.46664  0.00000  0.06672
       6     C     2.83085  2.83085  0.00000  0.33829
       7     O     4.16208  4.16208  0.00000 -0.32416
       8     H     0.46505  0.46505  0.00000  0.06990

   Total alpha = 16.00000, Total beta = 16.00000, Total charge = -0.00000
