                              Psi4 1.0.54 Driver

  ==> Input File <==

--------------------------------------------------------------------------
set {
	reference rhf
	basis cc-pvtz
}

set_num_threads( 4 )
memory 2 gb

molecule MOL {
0 1

H	 -2.218945	 0.087036	 -0.996415
N	 -1.851927	 0.161443	 -0.071573
C	 -0.561396	 -0.500007	 0.035200
H	 -2.518289	 -0.255594	 0.544363
C	 0.575129	 0.507849	 -0.048832
H	 -0.478089	 -1.200753	 -0.788956
H	 -0.456191	 -1.081816	 0.952176
C	 1.951750	 -0.141983	 0.035101
H	 0.478254	 1.061643	 -0.975981
H	 0.467676	 1.231891	 0.755499
H	 2.101550	 -0.848142	 -0.774949
H	 2.738260	 0.600794	 -0.026526
H	 2.078939	 -0.679792	 0.968824

	symmetry c1
}
set optking {
	frozen_dihedral = ("
		1 2 3 6
	")
}

ee,wfn = optimize('scf', return_wfn=True)
oeprop( wfn, 'DIPOLE', 'QUADRUPOLE', 'MULLIKEN_CHARGES')
f=open( 'psi4out.xyz', 'w' )
f.write( "13  " )
f.write( str(ee) + "\n" )
f.write( MOL.save_string_xyz() )
f.close()
--------------------------------------------------------------------------

    Molecular point group: c1
  Charge       = 0
  Multiplicity = 1
  Basis Set: CC-PVTZ
  Basis Set:
  @DF-RHF Final Energy:  -173.34918288977579
    Total Energy =                       -173.3491828897757614
    Molecular point group: c1
  Basis Set: CC-PVTZ
  Basis Set:
  Basis Set: CC-PVTZ
  Basis Set:
  @DF-RHF Final Energy:  -173.34681467206721
    Total Energy =                       -173.3468146720673246
  Basis Set: CC-PVTZ
  Basis Set:
  Basis Set: CC-PVTZ
  Basis Set:
  @DF-RHF Final Energy:  -173.35030114864861
    Total Energy =                       -173.3503011486484979
  Basis Set: CC-PVTZ
  Basis Set:
  Basis Set: CC-PVTZ
  Basis Set:
  @DF-RHF Final Energy:  -173.35037951511927
    Total Energy =                       -173.3503795151193287
  Basis Set: CC-PVTZ
  Basis Set:
  Basis Set: CC-PVTZ
  Basis Set:
  @DF-RHF Final Energy:  -173.35038459973916
    Total Energy =                       -173.3503845997390727
  Basis Set: CC-PVTZ
  Basis Set:
  Charge       = 0
  Multiplicity = 1
  Basis Set: CC-PVTZ
  Basis Set:

    Orbital Energies (a.u.)
    -----------------------

    Doubly Occupied:

       1A    -15.526582     2A    -11.239247     3A    -11.205160
       4A    -11.204444     5A     -1.176438     6A     -1.034436
       7A     -0.899260     8A     -0.795178     9A     -0.674488
      10A     -0.615593    11A     -0.602936    12A     -0.572851
      13A     -0.519657    14A     -0.490811    15A     -0.484791
      16A     -0.464471    17A     -0.382910

  @DF-RHF Final Energy:  -173.35038553245286

   => Energetics <=

    Nuclear Repulsion Energy =            131.6452472647684715
    One-Electron Energy =                -494.2127593084485397
    Two-Electron Energy =                 189.2171265112270930
    DFT Exchange-Correlation Energy =       0.0000000000000000
    Empirical Dispersion Energy =           0.0000000000000000
    PCM Polarization Energy =               0.0000000000000000
    EFP Energy =                            0.0000000000000000
    Total Energy =                       -173.3503855324529468
    Molecular point group: c1
  Basis Set: CC-PVTZ
  Basis Set:

  -Total Gradient:
     Atom            X                  Y                   Z
    ------   -----------------  -----------------  -----------------
       1       -0.000605630377    -0.002068680103     0.000723158995
       2        0.000882243560     0.003041736862    -0.001306639289
       3       -0.000659907990    -0.002521719793     0.001831028656
       4        0.000001074248    -0.000014335926     0.000024664554
       5       -0.000041490438     0.000002708365     0.000044786680
       6        0.000408039829     0.001555418467    -0.001319227492
       7        0.000003969649     0.000004218298     0.000012128824
       8        0.000005639870    -0.000017726405    -0.000016313137
       9        0.000001941267    -0.000004608722    -0.000000263530
      10        0.000001957006     0.000017489270     0.000007178478
      11        0.000002633716    -0.000004786171     0.000001648795
      12        0.000001530281     0.000010915928    -0.000006752333
      13       -0.000002000621    -0.000000630070     0.000004600799

  **** Optimization is complete! (in 6 steps) ****
    Final optimized geometry and variables:
    Molecular point group: c1

    Geometry (in Angstrom), charge = 0, multiplicity = 1:

    H           -2.324688079723    -0.308940382387    -0.698609610941
    N           -1.854008681112    -0.141118822275     0.164097746946
    C           -0.460694011139    -0.574772439863     0.105464344178
    H           -2.357741995226    -0.641223787093     0.863661735514
    C            0.482147111267     0.605060415291    -0.096248029065
    H           -0.296264179082    -1.290721880772    -0.697505965753
    H           -0.206302526928    -1.078915417035     1.031544323210
    C            1.946887827170     0.188364202205    -0.170446485988
    H            0.200706533395     1.125343234846    -1.007211854386
    H            0.332967066515     1.309183472233     0.715095840645
    H            2.122440482454    -0.495263988814    -0.995014632144
    H            2.591393757803     1.047654620735    -0.313604159586
    H            2.261036744237    -0.309815545952     0.741352772381

  Mulliken Charges: (a.u.)
   Center  Symbol    Alpha    Beta     Spin     Total
       1     H     0.42912  0.42912  0.00000  0.14175
       2     N     3.69312  3.69312  0.00000 -0.38625
       3     C     3.03751  3.03751  0.00000 -0.07501
       4     H     0.42668  0.42668  0.00000  0.14664
       5     C     3.06337  3.06337  0.00000 -0.12673
       6     H     0.46275  0.46275  0.00000  0.07449
       7     H     0.45721  0.45721  0.00000  0.08558
       8     C     3.15536  3.15536  0.00000 -0.31072
       9     H     0.45881  0.45881  0.00000  0.08239
      10     H     0.45418  0.45418  0.00000  0.09163
      11     H     0.45740  0.45740  0.00000  0.08520
      12     H     0.44762  0.44762  0.00000  0.10476
      13     H     0.45687  0.45687  0.00000  0.08626

   Total alpha = 17.00000, Total beta = 17.00000, Total charge =  0.00000

*** Psi4 exiting successfully. Buy a developer a beer!
