  ==> Input File <==

--------------------------------------------------------------------------
set {
	reference rhf
	basis 6-31G*
}

set_num_threads( 4 )
memory 2 gb

molecule MOL {
0 1

O	 0.576545	 -0.215998	 -0.169404
C	 1.705091	 0.115954	 0.001797
C	 2.177311	 1.527659	 0.250725
O	 2.721346	 -0.737485	 -0.000216
C	 1.046335	 2.551535	 0.265371
H	 2.720230	 1.527170	 1.191977
H	 2.912295	 1.763737	 -0.513987
C	 1.552639	 3.972004	 0.520293
H	 0.323689	 2.275210	 1.026696
H	 0.516648	 2.512877	 -0.681331
C	 0.431050	 5.011977	 0.539142
H	 2.085946	 4.003386	 1.469290
H	 2.278642	 4.242306	 -0.245042
C	 0.937681	 6.431236	 0.792681
H	 -0.293742	 4.744790	 1.304928
H	 -0.102072	 4.982454	 -0.408511
H	 1.446033	 6.501203	 1.750228
H	 0.119790	 7.144994	 0.799965
H	 1.639635	 6.740596	 0.023351
C	 4.024888	 -0.184556	 -0.001949
H	 4.179030	 0.422472	 -0.882452
H	 4.701782	 -1.024608	 -0.003642
H	 4.181981	 0.421185	 0.878906

	symmetry c1
}
set optking {
	frozen_dihedral = ("
		1 2 4 20
	")
}

ee = optimize('scf')
oeprop('DIPOLE', 'QUADRUPOLE', 'MULLIKEN_CHARGES')
f=open( 'psi4out.xyz', 'w' )
f.write( "23  " )
f.write( str(ee) + "\n" )
f.write( MOL.save_string_xyz() )
f.close()
--------------------------------------------------------------------------

    Molecular point group: c1
  Charge       = 0
  Multiplicity = 1
  Basis Set: 6-31G*
  Basis Set:
  @DF-RHF Final Energy:  -422.94884857990519
    Total Energy =                       -422.9488485799054160
    Molecular point group: c1
  Basis Set: 6-31G*
  Basis Set:
  Basis Set: 6-31G*
  Basis Set:
  @DF-RHF Final Energy:  -422.94650423382080
    Total Energy =                       -422.9465042338208605
  Basis Set: 6-31G*
  Basis Set:
  Basis Set: 6-31G*
  Basis Set:
  @DF-RHF Final Energy:  -422.95715931097385
    Total Energy =                       -422.9571593109737933
  Basis Set: 6-31G*
  Basis Set:
  Basis Set: 6-31G*
  Basis Set:
  @DF-RHF Final Energy:  -422.95999802626778
    Total Energy =                       -422.9599980262682948
  Basis Set: 6-31G*
  Basis Set:
  @DF-RHF Final Energy:  -422.95945784076667
    Total Energy =                       -422.9594578407668450
  @DF-RHF Final Energy:  -422.96038073747741
    Total Energy =                       -422.9603807374784310
  Basis Set: 6-31G*
  Basis Set:
  @DF-RHF Final Energy:  -422.96097624992473
    Total Energy =                       -422.9609762499255794
  Basis Set: 6-31G*
  Basis Set:
  Basis Set: 6-31G*
  Basis Set:
  @DF-RHF Final Energy:  -422.96098135446164
    Total Energy =                       -422.9609813544612962
  Basis Set: 6-31G*
  Basis Set:
  Basis Set: 6-31G*
  Basis Set:
  @DF-RHF Final Energy:  -422.96098463806459
    Total Energy =                       -422.9609846380639055
  Basis Set: 6-31G*
  Basis Set:
  Charge       = 0
  Multiplicity = 1
  Basis Set: 6-31G*
  Basis Set:

    Orbital Energies (a.u.)
    -----------------------

    Doubly Occupied:

       1A    -20.601850     2A    -20.539108     3A    -11.373732
       4A    -11.296470     5A    -11.245788     6A    -11.223474
       7A    -11.221899     8A    -11.219296     9A    -11.212188
      10A     -1.462842    11A     -1.364561    12A     -1.096561
      13A     -1.041913    14A     -0.987444    15A     -0.952728
      16A     -0.854441    17A     -0.799383    18A     -0.766791
      19A     -0.700687    20A     -0.689731    21A     -0.672172
      22A     -0.655339    23A     -0.613161    24A     -0.602375
      25A     -0.579718    26A     -0.566945    27A     -0.562846
      28A     -0.536882    29A     -0.520947    30A     -0.510603
      31A     -0.490370    32A     -0.472707    33A     -0.469235
      34A     -0.463591    35A     -0.446232    36A     -0.429390

  @DF-RHF Final Energy:  -422.96098489412799

   => Energetics <=

    Nuclear Repulsion Energy =            454.8166737757271108
    One-Electron Energy =               -1477.0685087369406574
    Two-Electron Energy =                 599.2908500670856711
    DFT Exchange-Correlation Energy =       0.0000000000000000
    Empirical Dispersion Energy =           0.0000000000000000
    PCM Polarization Energy =               0.0000000000000000
    EFP Energy =                            0.0000000000000000
    Total Energy =                       -422.9609848941278187
    Molecular point group: c1
  Basis Set: 6-31G*
  Basis Set:

  -Total Gradient:
     Atom            X                  Y                   Z
    ------   -----------------  -----------------  -----------------
       1        0.000067212736     0.000173994292    -0.001016018910
       2       -0.000160259345    -0.000215626916     0.000909644084
       3       -0.000000752232    -0.000007056492     0.000001810983
       4        0.000080829553     0.000079320368     0.001028023264
       5       -0.000000215323    -0.000003091748     0.000000890429
       6        0.000000091535    -0.000005576015     0.000000102628
       7       -0.000004792162    -0.000008355077     0.000003898759
       8        0.000000071550     0.000002439330    -0.000000486604
       9       -0.000003791914     0.000000598303     0.000002080489
      10        0.000000192499     0.000000341151    -0.000003260808
      11       -0.000003562772    -0.000001246797     0.000001188103
      12        0.000000262921    -0.000001903277    -0.000000499149
      13       -0.000000403951    -0.000001136620    -0.000001540520
      14        0.000003166945    -0.000002735751     0.000000527268
      15       -0.000000966939    -0.000000369028     0.000000399512
      16        0.000000413643    -0.000000100461    -0.000000463818
      17        0.000000101721     0.000000539363     0.000000498609
      18       -0.000000297613    -0.000002570326    -0.000000448695
      19        0.000000347891     0.000000343871    -0.000000262429
      20       -0.000003556826    -0.000016072371    -0.000928762520
      21        0.000009513285     0.000001335773     0.000005047307
      22        0.000020778438     0.000005860896     0.000002937985
      23       -0.000004383640     0.000001067536    -0.000005305965

  **** Optimization is complete! (in 10 steps) ****
    Final optimized geometry and variables:
    Molecular point group: c1

    Geometry (in Angstrom), charge = 0, multiplicity = 1:

    O           -1.062247955901    -2.162823958090    -0.402826848684
    C            0.068592757748    -1.853574925520    -0.237262011009
    C            0.511969939348    -0.424753261560     0.010861921905
    O            1.007060536771    -2.804568322432    -0.251012745883
    C           -0.655485895014     0.558919308509     0.027959506547
    H            1.048682110776    -0.392435542056     0.955888557495
    H            1.232014411295    -0.141283788319    -0.752308968352
    C           -0.197356651319     1.995607790558     0.282797875336
    H           -1.365375336705     0.254837707022     0.789649830472
    H           -1.183825601068     0.499850638728    -0.917628192222
    C           -1.355000496470     2.995326835214     0.304188724401
    H            0.335888693685     2.046052953328     1.231169331405
    H            0.517096986985     2.292629187317    -0.483845628009
    C           -0.898288663374     4.431201515262     0.558824399468
    H           -2.068702693946     2.701616396053     1.070462539350
    H           -1.887780491638     2.947879055861    -0.642777195084
    H           -0.391443780732     4.518086434296     1.515839659194
    H           -1.740918573299     5.115368317793     0.568159106072
    H           -0.208998649075     4.766357248662    -0.211170364936
    C            2.386325310473    -2.524077227039    -0.268745090393
    H            2.666356055709    -1.965189997053    -1.153096647505
    H            2.879517932618    -3.483369995685    -0.289687388773
    H            2.701304190124    -1.985577160922     0.615978706234

  Mulliken Charges: (a.u.)
   Center  Symbol    Alpha    Beta     Spin     Total
       1     O     4.26742  4.26742  0.00000 -0.53484
       2     C     2.59690  2.59690  0.00000  0.80619
       3     C     3.23502  3.23502  0.00000 -0.47003
       4     O     4.30375  4.30375  0.00000 -0.60751
       5     C     3.14856  3.14856  0.00000 -0.29713
       6     H     0.40337  0.40337  0.00000  0.19327
       7     H     0.40500  0.40500  0.00000  0.19000
       8     C     3.15389  3.15389  0.00000 -0.30778
       9     H     0.40851  0.40851  0.00000  0.18298
      10     H     0.40895  0.40895  0.00000  0.18211
      11     C     3.15189  3.15189  0.00000 -0.30377
      12     H     0.42473  0.42473  0.00000  0.15054
      13     H     0.42503  0.42503  0.00000  0.14994
      14     C     3.23970  3.23970  0.00000 -0.47940
      15     H     0.42039  0.42039  0.00000  0.15922
      16     H     0.42052  0.42052  0.00000  0.15895
      17     H     0.42189  0.42189  0.00000  0.15621
      18     H     0.41773  0.41773  0.00000  0.16455
      19     H     0.42199  0.42199  0.00000  0.15602
      20     C     3.09351  3.09351  0.00000 -0.18701
      21     H     0.41620  0.41620  0.00000  0.16760
      22     H     0.39783  0.39783  0.00000  0.20434
      23     H     0.41722  0.41722  0.00000  0.16557

   Total alpha = 36.00000, Total beta = 36.00000, Total charge = -0.00000
