  ==> Input File <==

--------------------------------------------------------------------------
set {
	reference rhf
	basis 6-31G*
}

set_num_threads( 1 )
memory 2 gb

molecule MOL {
0 1

H	 0.688985	 4.671892	 -0.765095
N	 -0.094453	 4.054453	 -0.857495
C	 0.250936	 2.712281	 -0.411619
H	 -0.345182	 4.048317	 -1.828025
C	 -0.969567	 1.799260	 -0.461797
H	 0.601948	 2.785578	 0.613212
H	 1.063069	 2.263847	 -0.989327
C	 -0.679275	 0.379305	 0.025956
H	 -1.758097	 2.247659	 0.135693
H	 -1.342496	 1.759666	 -1.484877
C	 -1.903357	 -0.536963	 -0.023547
H	 -0.303717	 0.418416	 1.047364
H	 0.117675	 -0.056602	 -0.574628
C	 -3.225172	 0.228290	 0.028445
H	 -1.867824	 -1.134999	 -0.931459
H	 -1.860449	 -1.239604	 0.805977
H	 -3.313397	 0.915643	 -0.808262
H	 -4.073500	 -0.448134	 -0.008893
H	 -3.306061	 0.809945	 0.942516

	symmetry c1
}
set optking {
	frozen_dihedral = ("
		6 3 5 9,
		12 8 5 9,
		1 2 3 6
	")
}

ee = energy('scf')
oeprop('DIPOLE', 'QUADRUPOLE', 'MULLIKEN_CHARGES')
f=open( 'psi4out.xyz', 'w' )
f.write( "19  " )
f.write( str(ee) + "\n" )
f.write( MOL.save_string_xyz() )
f.close()
--------------------------------------------------------------------------

    Molecular point group: c1

    Geometry (in Angstrom), charge = 0, multiplicity = 1:

       Center              X                  Y                   Z               Mass
    ------------   -----------------  -----------------  -----------------  -----------------
           H          1.784926262952     3.191653740820    -0.466670485439     1.007825032070
           N          1.001488262952     2.574214740820    -0.559070485439    14.003074004780
           C          1.346877262952     1.232042740820    -0.113194485439    12.000000000000
           H          0.750759262952     2.568078740820    -1.529600485439     1.007825032070
           C          0.126374262952     0.319021740820    -0.163372485439    12.000000000000
           H          1.697889262952     1.305339740820     0.911636514561     1.007825032070
           H          2.159010262952     0.783608740820    -0.690902485439     1.007825032070
           C          0.416666262952    -1.100933259180     0.324380514561    12.000000000000
           H         -0.662155737048     0.767420740820     0.434117514561     1.007825032070
           H         -0.246554737048     0.279427740820    -1.186452485439     1.007825032070
           C         -0.807415737048    -2.017201259180     0.274877514561    12.000000000000
           H          0.792224262952    -1.061822259180     1.345788514561     1.007825032070
           H          1.213616262952    -1.536840259180    -0.276203485439     1.007825032070
           C         -2.129230737048    -1.251948259180     0.326869514561    12.000000000000
           H         -0.771882737048    -2.615237259180    -0.633034485439     1.007825032070
           H         -0.764507737048    -2.719842259180     1.104401514561     1.007825032070
           H         -2.217455737048    -0.564595259180    -0.509837485439     1.007825032070
           H         -2.977558737048    -1.928372259180     0.289531514561     1.007825032070
           H         -2.210119737048    -0.670293259180     1.240940514561     1.007825032070

  Charge       = 0
  Multiplicity = 1
  Basis Set: 6-31G*
  Basis Set:

    Orbital Energies (a.u.)
    -----------------------

    Doubly Occupied:

       1A    -15.532063     2A    -11.238785     3A    -11.212754
       4A    -11.211613     5A    -11.208130     6A    -11.204536
       7A     -1.176128     8A     -1.075864     9A     -0.990215
      10A     -0.905002    11A     -0.828461    12A     -0.767989
      13A     -0.663777    14A     -0.643310    15A     -0.608921
      16A     -0.598726    17A     -0.578694    18A     -0.533850
      19A     -0.529985    20A     -0.497617    21A     -0.491242
      22A     -0.458265    23A     -0.452608    24A     -0.446206
      25A     -0.380582

  @DF-RHF Final Energy:  -251.34194098723145

   => Energetics <=

    Nuclear Repulsion Energy =            251.8494614461889682
    One-Electron Energy =                -837.9121310727259697
    Two-Electron Energy =                 334.7207286393056620
    DFT Exchange-Correlation Energy =       0.0000000000000000
    Empirical Dispersion Energy =           0.0000000000000000
    PCM Polarization Energy =               0.0000000000000000
    EFP Energy =                            0.0000000000000000
    Total Energy =                       -251.3419409872312826

  Mulliken Charges: (a.u.)
   Center  Symbol    Alpha    Beta     Spin     Total
       1     H     0.33252  0.33252  0.00000  0.33496
       2     N     3.92195  3.92195  0.00000 -0.84390
       3     C     3.05849  3.05849  0.00000 -0.11697
       4     H     0.33558  0.33558  0.00000  0.32883
       5     C     3.15902  3.15902  0.00000 -0.31803
       6     H     0.42123  0.42123  0.00000  0.15755
       7     H     0.43526  0.43526  0.00000  0.12948
       8     C     3.15743  3.15743  0.00000 -0.31487
       9     H     0.40843  0.40843  0.00000  0.18314
      10     H     0.42741  0.42741  0.00000  0.14518
      11     C     3.15229  3.15229  0.00000 -0.30458
      12     H     0.42238  0.42238  0.00000  0.15524
      13     H     0.42204  0.42204  0.00000  0.15591
      14     C     3.24645  3.24645  0.00000 -0.49289
      15     H     0.42228  0.42228  0.00000  0.15544
      16     H     0.42040  0.42040  0.00000  0.15920
      17     H     0.41732  0.41732  0.00000  0.16536
      18     H     0.41926  0.41926  0.00000  0.16148
      19     H     0.42027  0.42027  0.00000  0.15947

   Total alpha = 25.00000, Total beta = 25.00000, Total charge =  0.00000
