                              Psi4 1.0.54 Driver

  ==> Input File <==

--------------------------------------------------------------------------
set {
	reference rhf
	basis cc-pvtz
}

set_num_threads( 4 )
memory 2 gb

molecule MOL {
0 1

O	 -3.469451	 -0.023359	 0.858654
C	 -2.664672	 0.129869	 0.003507
C	 -2.875789	 1.018044	 -1.192678
O	 -1.481217	 -0.452708	 0.001092
H	 -3.078917	 2.021799	 -0.844402
H	 -2.019742	 1.021422	 -1.848277
H	 -3.749978	 0.672179	 -1.727697
C	 -0.332055	 0.384012	 -0.000250
C	 0.892252	 -0.506059	 -0.000295
H	 -0.360822	 1.020205	 -0.874146
H	 -0.359817	 1.021310	 0.872861
C	 2.188199	 0.299473	 -0.001416
H	 0.857046	 -1.152781	 -0.871031
H	 0.857910	 -1.151798	 0.871202
C	 3.437151	 -0.577593	 -0.000991
H	 2.209565	 0.950707	 -0.871712
H	 2.210062	 0.952234	 0.867721
C	 4.732399	 0.226982	 -0.000914
H	 3.417321	 -1.229122	 -0.869998
H	 3.416993	 -1.228707	 0.868337
H	 4.797903	 0.863451	 -0.876963
H	 5.598517	 -0.424436	 -0.000420
H	 4.797415	 0.864118	 0.874691

	symmetry c1
}
set optking {
	frozen_dihedral = ("
		1 2 4 8
	")
}

ee,wfn = optimize('scf', return_wfn=True)
oeprop( wfn, 'DIPOLE', 'QUADRUPOLE', 'MULLIKEN_CHARGES')
f=open( 'psi4out.xyz', 'w' )
f.write( "23  " )
f.write( str(ee) + "\n" )
f.write( MOL.save_string_xyz() )
f.close()
--------------------------------------------------------------------------

    Molecular point group: c1
  Charge       = 0
  Multiplicity = 1
  Basis Set: CC-PVTZ
  Basis Set:
  @DF-RHF Final Energy:  -423.11219906280343
    Total Energy =                       -423.1121990628030289
    Molecular point group: c1
  Basis Set: CC-PVTZ
  Basis Set:
  Basis Set: CC-PVTZ
  Basis Set:
  @DF-RHF Final Energy:  -422.96042109505129
    Total Energy =                       -422.9604210950510605
  Basis Set: CC-PVTZ
  Basis Set:
  Basis Set: CC-PVTZ
  Basis Set:
  @DF-RHF Final Energy:  -423.07420474181737
    Total Energy =                       -423.0742047418173115
  Basis Set: CC-PVTZ
  Basis Set:
  Basis Set: CC-PVTZ
  Basis Set:
  @DF-RHF Final Energy:  -423.11240444875165
    Total Energy =                       -423.1124044487515903
  Basis Set: CC-PVTZ
  Basis Set:
  @DF-RHF Final Energy:  -423.04267461010772
    Total Energy =                       -423.0426746101077242
  @DF-RHF Final Energy:  -423.11050673222485
    Total Energy =                       -423.1105067322253035
  @DF-RHF Final Energy:  -423.11549808039138
    Total Energy =                       -423.1154980803914896
  @DF-RHF Final Energy:  -423.11569545765337
    Total Energy =                       -423.1156954576533735
  @DF-RHF Final Energy:  -423.11583091566115
    Total Energy =                       -423.1158309156609221
  @DF-RHF Final Energy:  -423.10695213577532
    Total Energy =                       -423.1069521357753729
  @DF-RHF Final Energy:  -423.11641884733916
    Total Energy =                       -423.1164188473392187
  @DF-RHF Final Energy:  -423.11644492273427
    Total Energy =                       -423.1164449227343312
  @DF-RHF Final Energy:  -423.11679082492896
    Total Energy =                       -423.1167908249284437
  @DF-RHF Final Energy:  -423.11666908456755
    Total Energy =                       -423.1166690845677749
  Basis Set: CC-PVTZ
  Basis Set:
  @DF-RHF Final Energy:  -423.11686334449234
    Total Energy =                       -423.1168633444923444
  Basis Set: CC-PVTZ
  Basis Set:
  Basis Set: CC-PVTZ
  Basis Set:
  @DF-RHF Final Energy:  -423.11686694998235
    Total Energy =                       -423.1168669499822954
  Basis Set: CC-PVTZ
  Basis Set:
  Basis Set: CC-PVTZ
  Basis Set:
  @DF-RHF Final Energy:  -423.11687605016192
    Total Energy =                       -423.1168760501618635
  Basis Set: CC-PVTZ
  Basis Set:
  Charge       = 0
  Multiplicity = 1
  Basis Set: CC-PVTZ
  Basis Set:

    Orbital Energies (a.u.)
    -----------------------

    Doubly Occupied:

       1A    -20.579499     2A    -20.539488     3A    -11.368707
       4A    -11.292621     5A    -11.237198     6A    -11.225621
       7A    -11.225002     8A    -11.221848     9A    -11.213205
      10A     -1.460869    11A     -1.369079    12A     -1.096958
      13A     -1.036591    14A     -1.012376    15A     -0.939226
      16A     -0.845547    17A     -0.806326    18A     -0.777394
      19A     -0.700248    20A     -0.691715    21A     -0.660099
      22A     -0.651151    23A     -0.620079    24A     -0.593669
      25A     -0.580874    26A     -0.578271    27A     -0.567461
      28A     -0.545803    29A     -0.521405    30A     -0.502148
      31A     -0.491443    32A     -0.481485    33A     -0.474833
      34A     -0.474330    35A     -0.455043    36A     -0.435661

  @DF-RHF Final Energy:  -423.11687623902850

   => Energetics <=

    Nuclear Repulsion Energy =            450.1028640622890293
    One-Electron Energy =               -1467.8929402896537795
    Two-Electron Energy =                 594.6731999883363642
    DFT Exchange-Correlation Energy =       0.0000000000000000
    Empirical Dispersion Energy =           0.0000000000000000
    PCM Polarization Energy =               0.0000000000000000
    EFP Energy =                            0.0000000000000000
    Total Energy =                       -423.1168762390284428
    Molecular point group: c1
  Basis Set: CC-PVTZ
  Basis Set:

  -Total Gradient:
     Atom            X                  Y                   Z
    ------   -----------------  -----------------  -----------------
       1        0.001801594299     0.002045205413     0.001760712707
       2       -0.002585436330    -0.003056903475    -0.001209557612
       3       -0.000003885307    -0.000004548335     0.000031967646
       4        0.000727937816     0.001205096498    -0.003176130782
       5        0.000006256511     0.000012960082    -0.000001942643
       6        0.000009907049    -0.000008254587    -0.000023930992
       7       -0.000010695685     0.000004286918     0.000004070222
       8        0.000071615733    -0.000177224312     0.002599417932
       9       -0.000013858348    -0.000015018882    -0.000004737647
      10        0.000014779788    -0.000006840200     0.000013864695
      11       -0.000023052638    -0.000011438841    -0.000003271025
      12        0.000006179969     0.000010826651     0.000003809917
      13       -0.000000211126     0.000006946994     0.000005481219
      14        0.000003316468     0.000000233154    -0.000000844103
      15       -0.000008897605    -0.000008199536     0.000002319637
      16       -0.000001410623    -0.000005313310     0.000005153315
      17        0.000000948551    -0.000003372535    -0.000004007859
      18        0.000008682405     0.000010382246    -0.000000648562
      19        0.000001067247     0.000004634581     0.000003905441
      20       -0.000000893677     0.000004058467    -0.000003858303
      21       -0.000000335894    -0.000002819182     0.000004008654
      22       -0.000001130177    -0.000000693993    -0.000001234026
      23       -0.000002478427    -0.000004003813    -0.000004547835

  **** Optimization is complete! (in 18 steps) ****
    Final optimized geometry and variables:
    Molecular point group: c1

    Geometry (in Angstrom), charge = 0, multiplicity = 1:

    O           -3.383264292723     0.630285392635     0.863871563168
    C           -2.612074839605     0.715743184215    -0.020321260043
    C           -2.733564672374     1.724137393005    -1.134203754426
    O           -1.565571208171    -0.120731089019    -0.101060805860
    H           -1.985105997777     2.498774193626    -1.016414038354
    H           -2.573060292797     1.248311304232    -2.092751895904
    H           -3.711211558232     2.176353906116    -1.097084253516
    C           -0.252565306788     0.407603914937    -0.081831186292
    C            0.717768690799    -0.748705491505     0.035078823884
    H           -0.061129128091     0.971174390529    -0.988887348802
    H           -0.148999963711     1.078414353005     0.764891838561
    C            2.171595334730    -0.286594617809     0.060641265299
    H            0.554230873539    -1.421967263174    -0.799846458085
    H            0.484436452937    -1.303950801047     0.936521351554
    C            3.161679516897    -1.441763287704     0.181562019579
    H            2.390999944723     0.277372875928    -0.843039220676
    H            2.320671783782     0.398568438646     0.891798422211
    C            4.615325014078    -0.982346693113     0.208065324363
    H            3.014769861184    -2.127168813703    -0.648253862363
    H            2.944625126638    -2.005381715920     1.084252131019
    H            4.872851495051    -0.444131375575    -0.698098148788
    H            5.290696215070    -1.825423463107     0.294480356865
    H            4.802078502165    -0.321849340134     1.048203585874

  Mulliken Charges: (a.u.)
   Center  Symbol    Alpha    Beta     Spin     Total
       1     O     4.17011  4.17011  0.00000 -0.34022
       2     C     2.81308  2.81308  0.00000  0.37384
       3     C     3.16133  3.16133  0.00000 -0.32266
       4     O     4.15287  4.15287  0.00000 -0.30573
       5     H     0.44846  0.44846  0.00000  0.10307
       6     H     0.44203  0.44203  0.00000  0.11594
       7     H     0.43046  0.43046  0.00000  0.13907
       8     C     2.98098  2.98098  0.00000  0.03804
       9     C     3.08348  3.08348  0.00000 -0.16696
      10     H     0.46153  0.46153  0.00000  0.07695
      11     H     0.45922  0.45922  0.00000  0.08155
      12     C     3.09947  3.09947  0.00000 -0.19894
      13     H     0.44837  0.44837  0.00000  0.10326
      14     H     0.44397  0.44397  0.00000  0.11205
      15     C     3.08583  3.08583  0.00000 -0.17167
      16     H     0.45478  0.45478  0.00000  0.09043
      17     H     0.45320  0.45320  0.00000  0.09360
      18     C     3.14948  3.14948  0.00000 -0.29895
      19     H     0.45285  0.45285  0.00000  0.09430
      20     H     0.45180  0.45180  0.00000  0.09640
      21     H     0.45519  0.45519  0.00000  0.08961
      22     H     0.44695  0.44695  0.00000  0.10610
      23     H     0.45455  0.45455  0.00000  0.09091

   Total alpha = 36.00000, Total beta = 36.00000, Total charge = -0.00000

*** Psi4 exiting successfully. Buy a developer a beer!
