  ==> Input File <==

--------------------------------------------------------------------------
set {
	reference rhf
	basis cc-pvtz
}

set_num_threads( 4 )
memory 2 gb

molecule MOL {
0 1

H	 2.576597	 0.172471	 1.056181
O	 1.728320	 -0.241983	 1.105071
C	 1.050374	 0.054877	 0.000135
C	 -0.318151	 -0.570512	 0.000144
O	 1.506107	 0.732482	 -0.854924
C	 -1.454884	 0.441630	 -0.000560
H	 -0.371613	 -1.223646	 -0.864985
H	 -0.371920	 -1.222758	 0.865929
C	 -2.822577	 -0.232186	 0.000063
H	 -1.359760	 1.084704	 -0.867077
H	 -1.359641	 1.085996	 0.864983
H	 -2.954352	 -0.858985	 -0.875745
H	 -3.615886	 0.505352	 0.000019
H	 -2.953878	 -0.858359	 0.876394

	symmetry c1
}
set optking {
	frozen_dihedral = ("
		2 3 4 7
	")
}

ee = optimize('scf')
oeprop('DIPOLE', 'QUADRUPOLE', 'MULLIKEN_CHARGES')
f=open( 'psi4out.xyz', 'w' )
f.write( "14  " )
f.write( str(ee) + "\n" )
f.write( MOL.save_string_xyz() )
f.close()
--------------------------------------------------------------------------

    Molecular point group: c1
  Charge       = 0
  Multiplicity = 1
  Basis Set: CC-PVTZ
  Basis Set:
  @DF-RHF Final Energy:  -305.99865999820753
    Total Energy =                       -305.9986599982076427
    Molecular point group: c1
  Basis Set: CC-PVTZ
  Basis Set:
  Basis Set: CC-PVTZ
  Basis Set:
  @DF-RHF Final Energy:  -305.99936636682759
    Total Energy =                       -305.9993663668275872
  Basis Set: CC-PVTZ
  Basis Set:
  Basis Set: CC-PVTZ
  Basis Set:
  @DF-RHF Final Energy:  -305.99939676081192
    Total Energy =                       -305.9993967608122034
  Basis Set: CC-PVTZ
  Basis Set:
  Basis Set: CC-PVTZ
  Basis Set:
  @DF-RHF Final Energy:  -305.99936053585179
    Total Energy =                       -305.9993605358521336
  Basis Set: CC-PVTZ
  Basis Set:
  Charge       = 0
  Multiplicity = 1
  Basis Set: CC-PVTZ
  Basis Set:

    Orbital Energies (a.u.)
    -----------------------

    Doubly Occupied:

       1A    -20.606625     2A    -20.538157     3A    -11.373575
       4A    -11.238403     5A    -11.230675     6A    -11.217730
       7A     -1.478377     8A     -1.368582     9A     -1.085810
      10A     -0.980304    11A     -0.856904    12A     -0.803387
      13A     -0.706298    14A     -0.690482    15A     -0.653404
      16A     -0.630511    17A     -0.596604    18A     -0.572372
      19A     -0.551546    20A     -0.513911    21A     -0.496619
      22A     -0.488337    23A     -0.474952    24A     -0.444152

  @DF-RHF Final Energy:  -305.99940282085959

   => Energetics <=

    Nuclear Repulsion Energy =            240.5233207038841385
    One-Electron Energy =                -893.8500174415410129
    Two-Electron Energy =                 347.3272939167973732
    DFT Exchange-Correlation Energy =       0.0000000000000000
    Empirical Dispersion Energy =           0.0000000000000000
    PCM Polarization Energy =               0.0000000000000000
    EFP Energy =                            0.0000000000000000
    Total Energy =                       -305.9994028208595296
    Molecular point group: c1
  Basis Set: CC-PVTZ
  Basis Set:

  -Total Gradient:
     Atom            X                  Y                   Z
    ------   -----------------  -----------------  -----------------
       1        0.000008546043     0.000008096193    -0.000008182063
       2        0.000046635139     0.000116883926     0.000285754019
       3        0.000076497640    -0.000013839045    -0.000482516526
       4        0.000014797734    -0.000186250267     0.000236020224
       5       -0.000105240275    -0.000162312955     0.000180513638
       6        0.000118055457    -0.000043737401    -0.000015888806
       7       -0.000078418862     0.000190039988    -0.000195204371
       8        0.000032723370     0.000075523854    -0.000035642697
       9       -0.000088630145    -0.000004595344     0.000005243413
      10       -0.000000221749    -0.000006769718     0.000012542500
      11       -0.000021438736     0.000043521418     0.000018796287
      12       -0.000002324704    -0.000004029563    -0.000005487431
      13        0.000008181796    -0.000009408944     0.000004993667
      14       -0.000009162703    -0.000003122142    -0.000000941854

  **** Optimization is complete! (in 5 steps) ****
    Final optimized geometry and variables:
    Molecular point group: c1

    Geometry (in Angstrom), charge = 0, multiplicity = 1:

    H            2.631781898245     0.169242582795     0.930552525928
    O            1.801760449781    -0.276165764063     1.016409955738
    C            1.057737671749     0.018929244902    -0.043739421549
    C           -0.297931626996    -0.637540850224    -0.018813576916
    O            1.444189854315     0.732670714855    -0.904586676333
    C           -1.425818033527     0.396935511711    -0.047329122594
    H           -0.357317285386    -1.262588206929    -0.902867434784
    H           -0.378041941449    -1.273925952024     0.850911527937
    C           -2.802750534560    -0.255639778508    -0.082559593903
    H           -1.293546071632     1.034549187355    -0.911946502360
    H           -1.348722191508     1.035339525031     0.827374394128
    H           -2.919315881558    -0.874656704090    -0.965629720087
    H           -3.584264969103     0.494315842803    -0.098460748409
    H           -2.964199301955    -0.884022804167     0.786719896991

  Mulliken Charges: (a.u.)
   Center  Symbol    Alpha    Beta     Spin     Total
       1     H     0.38040  0.38040  0.00000  0.23921
       2     O     4.15838  4.15838  0.00000 -0.31675
       3     C     2.80792  2.80792  0.00000  0.38416
       4     C     3.08963  3.08963  0.00000 -0.17927
       5     O     4.19894  4.19894  0.00000 -0.39787
       6     C     3.08962  3.08962  0.00000 -0.17924
       7     H     0.44288  0.44288  0.00000  0.11423
       8     H     0.43886  0.43886  0.00000  0.12229
       9     C     3.14993  3.14993  0.00000 -0.29986
      10     H     0.43952  0.43952  0.00000  0.12096
      11     H     0.45039  0.45039  0.00000  0.09923
      12     H     0.45343  0.45343  0.00000  0.09315
      13     H     0.44554  0.44554  0.00000  0.10893
      14     H     0.45458  0.45458  0.00000  0.09084

   Total alpha = 24.00000, Total beta = 24.00000, Total charge = -0.00000
