                              Psi4 1.0.54 Driver

  ==> Input File <==

--------------------------------------------------------------------------
set {
	reference rhf
	basis cc-pvtz
}

set_num_threads( 4 )
memory 2 gb

molecule MOL {
0 1

H	 -2.644180	 -0.653737	 1.272255
C	 -2.092774	 -0.380414	 0.391915
O	 -0.808934	 -0.154049	 0.752536
F	 -2.163230	 -1.351640	 -0.507133
F	 -2.627232	 0.691260	 -0.169301
C	 0.085006	 0.250800	 -0.215074
C	 1.370439	 -0.548013	 -0.012993
Cl	 0.421658	 1.987697	 -0.091007
H	 -0.272219	 0.063284	 -1.212508
F	 2.200052	 -0.339334	 -1.003557
F	 1.079469	 -1.827160	 0.007856
F	 1.969827	 -0.246378	 1.105936

	symmetry c1
}
set optking {
	frozen_dihedral = ("
		10 7 6 9
	")
}

ee,wfn = optimize('scf', return_wfn=True)
oeprop( wfn, 'DIPOLE', 'QUADRUPOLE', 'MULLIKEN_CHARGES')
f=open( 'psi4out.xyz', 'w' )
f.write( "12  " )
f.write( str(ee) + "\n" )
f.write( MOL.save_string_xyz() )
f.close()
--------------------------------------------------------------------------

    Molecular point group: c1
  Charge       = 0
  Multiplicity = 1
  Basis Set: CC-PVTZ
  Basis Set:
  @DF-RHF Final Energy: -1146.62001753060986
    Total Energy =                      -1146.6200175306096298
    Molecular point group: c1
  Basis Set: CC-PVTZ
  Basis Set:
  Basis Set: CC-PVTZ
  Basis Set:
  @DF-RHF Final Energy: -1146.62008033694519
    Total Energy =                      -1146.6200803369451933
  Basis Set: CC-PVTZ
  Basis Set:
  Basis Set: CC-PVTZ
  Basis Set:
  @DF-RHF Final Energy: -1146.62012165994975
    Total Energy =                      -1146.6201216599506552
  Basis Set: CC-PVTZ
  Basis Set:
  Basis Set: CC-PVTZ
  Basis Set:
  @DF-RHF Final Energy: -1146.62012320662006
    Total Energy =                      -1146.6201232066205193
  Basis Set: CC-PVTZ
  Basis Set:
  Charge       = 0
  Multiplicity = 1
  Basis Set: CC-PVTZ
  Basis Set:

    Orbital Energies (a.u.)
    -----------------------

    Doubly Occupied:

       1A   -104.855845     2A    -26.355016     3A    -26.354079
       4A    -26.353067     5A    -26.343673     6A    -26.343651
       7A    -20.641857     8A    -11.520351     9A    -11.484533
      10A    -11.401276    11A    -10.581377    12A     -8.048167
      13A     -8.046192    14A     -8.046109    15A     -1.767998
      16A     -1.725321    17A     -1.663564    18A     -1.660694
      19A     -1.645299    20A     -1.488352    21A     -1.177799
      22A     -1.052684    23A     -0.991548    24A     -0.924900
      25A     -0.865139    26A     -0.859137    27A     -0.851931
      28A     -0.830157    29A     -0.818923    30A     -0.794129
      31A     -0.733963    32A     -0.733828    33A     -0.712948
      34A     -0.708456    35A     -0.684866    36A     -0.681700
      37A     -0.665557    38A     -0.664097    39A     -0.650092
      40A     -0.638502    41A     -0.599272    42A     -0.581984
      43A     -0.524945    44A     -0.478085    45A     -0.469301

  @DF-RHF Final Energy: -1146.62012360379822

   => Energetics <=

    Nuclear Repulsion Energy =            738.0992129270464375
    One-Electron Energy =               -3059.3979433390031772
    Two-Electron Energy =                1174.6786068081582926
    DFT Exchange-Correlation Energy =       0.0000000000000000
    Empirical Dispersion Energy =           0.0000000000000000
    PCM Polarization Energy =               0.0000000000000000
    EFP Energy =                            0.0000000000000000
    Total Energy =                      -1146.6201236037986746
    Molecular point group: c1
  Basis Set: CC-PVTZ
  Basis Set:

  -Total Gradient:
     Atom            X                  Y                   Z
    ------   -----------------  -----------------  -----------------
       1       -0.000007613652    -0.000004220033    -0.000003780906
       2        0.000002943093     0.000018462717     0.000060301747
       3       -0.000006888330    -0.000010729049    -0.000039569758
       4        0.000006681352    -0.000014415244    -0.000014732650
       5        0.000029253491     0.000024242409    -0.000013422912
       6       -0.001860090430    -0.002887688892     0.000680045579
       7        0.001371419231     0.002472214728     0.001244234954
       8       -0.000019820499    -0.000008436905     0.000016620639
       9        0.001337521546     0.001940799272    -0.000811173047
      10       -0.000825129947    -0.001608251271    -0.001076628094
      11       -0.000017873540     0.000051610531    -0.000032736367
      12       -0.000010402297     0.000026411827    -0.000009159190

  **** Optimization is complete! (in 5 steps) ****
    Final optimized geometry and variables:
    Molecular point group: c1

    Geometry (in Angstrom), charge = 0, multiplicity = 1:

    H           -2.651252957867    -0.637288025677     1.278892975884
    C           -2.096302657791    -0.375900096674     0.397139619309
    O           -0.813948135179    -0.143585965775     0.759572251470
    F           -2.162181699476    -1.359264222559    -0.488781392470
    F           -2.628413986375     0.687883477400    -0.181078574981
    C            0.081549424925     0.248160985855    -0.209389789642
    C            1.371013573574    -0.546601236106    -0.009978304572
    CL           0.425172058841     1.987143212584    -0.099715496533
    H           -0.268454606373     0.068577076898    -1.210644083507
    F            2.197185148477    -0.315522503558    -0.999853184434
    F            1.089658446977    -1.828132451788    -0.016621382694
    F            1.967932264591    -0.265550968407     1.114476051712

  Mulliken Charges: (a.u.)
   Center  Symbol    Alpha    Beta     Spin     Total
       1     H     0.45190  0.45190  0.00000  0.09620
       2     C     2.73982  2.73982  0.00000  0.52037
       3     O     4.15609  4.15609  0.00000 -0.31218
       4     F     4.61771  4.61771  0.00000 -0.23542
       5     F     4.61503  4.61503  0.00000 -0.23007
       6     C     2.93696  2.93696  0.00000  0.12608
       7     C     2.66882  2.66882  0.00000  0.66237
       8    CL     8.57516  8.57516  0.00000 -0.15032
       9     H     0.43077  0.43077  0.00000  0.13846
      10     F     4.60365  4.60365  0.00000 -0.20731
      11     F     4.60441  4.60441  0.00000 -0.20881
      12     F     4.59968  4.59968  0.00000 -0.19937

   Total alpha = 45.00000, Total beta = 45.00000, Total charge = -0.00000

*** Psi4 exiting successfully. Buy a developer a beer!
