                              Psi4 1.0.54 Driver

  ==> Input File <==

--------------------------------------------------------------------------
set {
	reference rhf
	basis cc-pvtz
}

set_num_threads( 4 )
memory 2 gb

molecule MOL {
0 1

O	 -0.988175	 -1.402891	 0.050086
C	 -0.675048	 -0.248293	 -0.009686
C	 -1.742492	 0.826599	 -0.011538
N	 0.622280	 0.144970	 -0.099307
H	 -1.692153	 1.431066	 -0.908439
H	 -2.698310	 0.331559	 0.031353
H	 -1.642148	 1.483784	 0.843455
C	 1.578981	 -0.379109	 0.852539
C	 1.066650	 1.293796	 -0.851962
H	 2.520490	 -0.568159	 0.351496
H	 1.207005	 -1.296649	 1.270791
H	 1.758159	 0.325177	 1.660939
H	 2.060384	 1.104235	 -1.236925
H	 0.424412	 1.491983	 -1.692882
H	 1.113459	 2.189213	 -0.236267

	symmetry c1
}
set optking {
	frozen_dihedral = ("
		8 4 2 3
	")
}

ee,wfn = optimize('scf', return_wfn=True)
oeprop( wfn, 'DIPOLE', 'QUADRUPOLE', 'MULLIKEN_CHARGES')
f=open( 'psi4out.xyz', 'w' )
f.write( "15  " )
f.write( str(ee) + "\n" )
f.write( MOL.save_string_xyz() )
f.close()
--------------------------------------------------------------------------

    Molecular point group: c1
  Charge       = 0
  Multiplicity = 1
  Basis Set: CC-PVTZ
  Basis Set:
  @DF-RHF Final Energy:  -286.11910131420410
    Total Energy =                       -286.1191013142041584
    Molecular point group: c1
  Basis Set: CC-PVTZ
  Basis Set:
  Basis Set: CC-PVTZ
  Basis Set:
  @DF-RHF Final Energy:  -286.12219960823609
    Total Energy =                       -286.1221996082362011
  Basis Set: CC-PVTZ
  Basis Set:
  Basis Set: CC-PVTZ
  Basis Set:
  @DF-RHF Final Energy:  -286.12389571470180
    Total Energy =                       -286.1238957147018027
  Basis Set: CC-PVTZ
  Basis Set:
  Basis Set: CC-PVTZ
  Basis Set:
  @DF-RHF Final Energy:  -286.12516607919451
    Total Energy =                       -286.1251660791946279
  Basis Set: CC-PVTZ
  Basis Set:
  @DF-RHF Final Energy:  -286.12558558717865
    Total Energy =                       -286.1255855871785343
  @DF-RHF Final Energy:  -286.12569117094728
    Total Energy =                       -286.1256911709475048
  @DF-RHF Final Energy:  -286.12570933788572
    Total Energy =                       -286.1257093378857235
  @DF-RHF Final Energy:  -286.12571289259608
    Total Energy =                       -286.1257128925958568
  @DF-RHF Final Energy:  -286.12569535447983
    Total Energy =                       -286.1256953544798307
  @DF-RHF Final Energy:  -286.12571241483545
    Total Energy =                       -286.1257124148356183
  Basis Set: CC-PVTZ
  Basis Set:
  @DF-RHF Final Energy:  -286.12533372914919
    Total Energy =                       -286.1253337291494745
  Basis Set: CC-PVTZ
  Basis Set:
  Basis Set: CC-PVTZ
  Basis Set:
  @DF-RHF Final Energy:  -286.12568460808956
    Total Energy =                       -286.1256846080897276
  Basis Set: CC-PVTZ
  Basis Set:
  Basis Set: CC-PVTZ
  Basis Set:
  @DF-RHF Final Energy:  -286.12571292950952
    Total Energy =                       -286.1257129295095183
  Basis Set: CC-PVTZ
  Basis Set:
  Charge       = 0
  Multiplicity = 1
  Basis Set: CC-PVTZ
  Basis Set:

    Orbital Energies (a.u.)
    -----------------------

    Doubly Occupied:

       1A    -20.516259     2A    -15.571843     3A    -11.339312
       4A    -11.259390     5A    -11.250316     6A    -11.229788
       7A     -1.396530     8A     -1.243521     9A     -1.014177
      10A     -0.969141    11A     -0.916780    12A     -0.738446
      13A     -0.684270    14A     -0.661572    15A     -0.652022
      16A     -0.593445    17A     -0.579584    18A     -0.572255
      19A     -0.561098    20A     -0.552176    21A     -0.528352
      22A     -0.504191    23A     -0.420670    24A     -0.373075

  @DF-RHF Final Energy:  -286.12571314432671

   => Energetics <=

    Nuclear Repulsion Energy =            253.1907938707770143
    One-Electron Energy =                -890.3765925942873309
    Two-Electron Energy =                 351.0600855791836352
    DFT Exchange-Correlation Energy =       0.0000000000000000
    Empirical Dispersion Energy =           0.0000000000000000
    PCM Polarization Energy =               0.0000000000000000
    EFP Energy =                            0.0000000000000000
    Total Energy =                       -286.1257131443266530
    Molecular point group: c1
  Basis Set: CC-PVTZ
  Basis Set:

  -Total Gradient:
     Atom            X                  Y                   Z
    ------   -----------------  -----------------  -----------------
       1       -0.000059967096     0.000015076268    -0.000096698515
       2       -0.001903466408     0.000826695660    -0.010305741729
       3        0.001104317672     0.001721571759     0.008094050600
       4        0.001550277333    -0.010056118871    -0.001894181847
       5       -0.000001998817    -0.000000390489     0.000014908085
       6        0.000000309986     0.000004325297    -0.000000196060
       7        0.000008724490    -0.000011358386     0.000003949495
       8       -0.000552567444     0.007417265384     0.004134362562
       9       -0.000135035903     0.000057414644     0.000017443890
      10       -0.000010998832     0.000010303391     0.000009440165
      11       -0.000021138465     0.000041592497     0.000046475100
      12        0.000010874594    -0.000002872233    -0.000014181990
      13       -0.000025301828     0.000001033266    -0.000004988814
      14        0.000021366630    -0.000007446164     0.000005271795
      15        0.000014604089    -0.000017092023    -0.000009912736

  **** Optimization is complete! (in 14 steps) ****
    Final optimized geometry and variables:
    Molecular point group: c1

    Geometry (in Angstrom), charge = 0, multiplicity = 1:

    O           -1.070136593884    -1.322012237669     0.382000154566
    C           -0.680755074813    -0.267114302204    -0.012096500115
    C           -1.637763972760     0.900715293505    -0.130779837848
    N            0.663535378927    -0.044921489135    -0.246095806843
    H           -1.691694193512     1.299270785511    -1.135396311612
    H           -2.615366762233     0.559069783134     0.166458840257
    H           -1.313594843828     1.700683241247     0.524170478786
    C            1.576031287040    -0.544763718438     0.768692146344
    C            1.098998957864     1.209705169990    -0.820782391851
    H            2.550362061493    -0.718582451662     0.331072144075
    H            1.204750895645    -1.473230339007     1.166060602366
    H            1.688881671380     0.172431063163     1.580044156429
    H            2.111019183508     1.088073109502    -1.182252277188
    H            0.486910941168     1.484237851963    -1.665569580501
    H            1.098264649625     2.031973027649    -0.106432667991

  Mulliken Charges: (a.u.)
   Center  Symbol    Alpha    Beta     Spin     Total
       1     O     4.20153  4.20153  0.00000 -0.40306
       2     C     2.84048  2.84048  0.00000  0.31905
       3     C     3.15919  3.15919  0.00000 -0.31837
       4     N     3.57838  3.57838  0.00000 -0.15677
       5     H     0.44738  0.44738  0.00000  0.10524
       6     H     0.42854  0.42854  0.00000  0.14292
       7     H     0.44937  0.44937  0.00000  0.10126
       8     C     3.09678  3.09678  0.00000 -0.19356
       9     C     3.10329  3.10329  0.00000 -0.20658
      10     H     0.45328  0.45328  0.00000  0.09345
      11     H     0.42942  0.42942  0.00000  0.14116
      12     H     0.46314  0.46314  0.00000  0.07372
      13     H     0.44214  0.44214  0.00000  0.11572
      14     H     0.44678  0.44678  0.00000  0.10643
      15     H     0.46030  0.46030  0.00000  0.07940

   Total alpha = 24.00000, Total beta = 24.00000, Total charge =  0.00000

*** Psi4 exiting successfully. Buy a developer a beer!
