  ==> Input File <==

--------------------------------------------------------------------------
set {
	reference rhf
	basis cc-pvtz
}

set_num_threads( 4 )
memory 2 gb

molecule MOL {
0 1

H	 -3.162190	 0.493205	 -0.000107
C	 -2.363908	 -0.234727	 0.000005
O	 -1.158738	 0.454634	 -0.000087
H	 -2.464314	 -0.863616	 -0.882153
H	 -2.464327	 -0.863359	 0.882345
C	 -0.028611	 -0.359694	 0.000037
C	 1.212847	 0.509314	 -0.000053
H	 -0.034155	 -1.007047	 -0.877198
H	 -0.034195	 -1.006836	 0.877430
C	 0.969034	 1.873121	 0.636292
H	 2.001111	 -0.014394	 0.529376
H	 1.550126	 0.629672	 -1.023629
H	 0.653613	 1.776468	 1.669856
H	 1.871108	 2.472377	 0.623026
H	 0.199839	 2.424953	 0.106304

	symmetry c1
}
set optking {
	frozen_dihedral = ("
		11 7 6 8
	")
}

ee = optimize('scf')
oeprop('DIPOLE', 'QUADRUPOLE', 'MULLIKEN_CHARGES')
f=open( 'psi4out.xyz', 'w' )
f.write( "15  " )
f.write( str(ee) + "\n" )
f.write( MOL.save_string_xyz() )
f.close()
--------------------------------------------------------------------------

    Molecular point group: c1
  Charge       = 0
  Multiplicity = 1
  Basis Set: CC-PVTZ
  Basis Set:
  @DF-RHF Final Energy:  -232.22193860137514
    Total Energy =                       -232.2219386013748021
    Molecular point group: c1
  Basis Set: CC-PVTZ
  Basis Set:
  Basis Set: CC-PVTZ
  Basis Set:
  @DF-RHF Final Energy:  -232.22264483311861
    Total Energy =                       -232.2226448331185793
  Basis Set: CC-PVTZ
  Basis Set:
  Basis Set: CC-PVTZ
  Basis Set:
  @DF-RHF Final Energy:  -232.22335826856710
    Total Energy =                       -232.2233582685670967
  Basis Set: CC-PVTZ
  Basis Set:
  Basis Set: CC-PVTZ
  Basis Set:
  @DF-RHF Final Energy:  -232.22338686123848
    Total Energy =                       -232.2233868612382821
  Basis Set: CC-PVTZ
  Basis Set:
  Basis Set: CC-PVTZ
  Basis Set:
  @DF-RHF Final Energy:  -232.22338946248061
    Total Energy =                       -232.2233894624804407
  Basis Set: CC-PVTZ
  Basis Set:
  Charge       = 0
  Multiplicity = 1
  Basis Set: CC-PVTZ
  Basis Set:

    Orbital Energies (a.u.)
    -----------------------

    Doubly Occupied:

       1A    -20.546977     2A    -11.265551     3A    -11.261995
       4A    -11.214249     5A    -11.199465     6A     -1.381457
       7A     -1.051602     8A     -0.949301     9A     -0.889097
      10A     -0.794493    11A     -0.676131    12A     -0.657971
      13A     -0.634982    14A     -0.602082    15A     -0.554732
      16A     -0.544288    17A     -0.503608    18A     -0.483341
      19A     -0.474955    20A     -0.460123    21A     -0.414497

  @DF-RHF Final Energy:  -232.22338970444605

   => Energetics <=

    Nuclear Repulsion Energy =            193.6541373190788136
    One-Electron Energy =                -698.6332658337055364
    Two-Electron Energy =                 272.7557388101807874
    DFT Exchange-Correlation Energy =       0.0000000000000000
    Empirical Dispersion Energy =           0.0000000000000000
    PCM Polarization Energy =               0.0000000000000000
    EFP Energy =                            0.0000000000000000
    Total Energy =                       -232.2233897044459354
    Molecular point group: c1
  Basis Set: CC-PVTZ
  Basis Set:

  -Total Gradient:
     Atom            X                  Y                   Z
    ------   -----------------  -----------------  -----------------
       1        0.000014205687     0.000007277144    -0.000000413199
       2       -0.000003817042    -0.000013058184     0.000003448041
       3        0.000017615815     0.000018864303    -0.000004641399
       4        0.000007586231     0.000003454521    -0.000001084242
       5        0.000004763356     0.000001911662     0.000000473230
       6        0.003530659083    -0.004815337959     0.005248833033
       7        0.001362495467    -0.002319988141    -0.007326826936
       8       -0.003184123034     0.004359748804    -0.003291351265
       9        0.000017934636    -0.000015605064     0.000002353646
      10       -0.000001477722    -0.000008455138     0.000010850405
      11       -0.001765250800     0.002770774354     0.005359152813
      12        0.000006942021    -0.000002657221    -0.000008243102
      13       -0.000000000262     0.000008601306     0.000004722986
      14       -0.000005074022     0.000006345325     0.000001056725
      15       -0.000002459415    -0.000001875712     0.000001669262

  **** Optimization is complete! (in 6 steps) ****
    Final optimized geometry and variables:
    Molecular point group: c1

    Geometry (in Angstrom), charge = 0, multiplicity = 1:

    H           -2.887943747054    -0.017416968409    -0.176635569518
    C           -2.069097079099    -0.721686886002    -0.144224755584
    O           -0.884530449750     0.000539448816    -0.146743193454
    H           -2.139067421566    -1.378801570679    -1.008851691261
    H           -2.165382110780    -1.328002299976     0.754328264266
    C            0.267482077935    -0.788826320504    -0.100300889460
    C            1.517144906220     0.091539034330    -0.149177253131
    H            0.252335713743    -1.451583471728    -0.963504803870
    H            0.259177622398    -1.393953740319     0.804204642381
    C            1.346795392975     1.450733160087     0.528678696280
    H            2.308560524294    -0.431565646860     0.378046706310
    H            1.833254261411     0.234251459288    -1.175484956203
    H            1.032749800652     1.337419700431     1.560442873721
    H            2.288807300591     1.987540708999     0.524134486356
    H            0.606722851751     2.055401556857     0.025107312365

  Mulliken Charges: (a.u.)
   Center  Symbol    Alpha    Beta     Spin     Total
       1     H     0.44765  0.44765  0.00000  0.10471
       2     C     3.03047  3.03047  0.00000 -0.06093
       3     O     4.17255  4.17255  0.00000 -0.34510
       4     H     0.47228  0.47228  0.00000  0.05544
       5     H     0.47251  0.47251  0.00000  0.05498
       6     C     2.97026  2.97026  0.00000  0.05949
       7     C     3.08860  3.08860  0.00000 -0.17719
       8     H     0.46795  0.46795  0.00000  0.06410
       9     H     0.47140  0.47140  0.00000  0.05720
      10     C     3.14170  3.14170  0.00000 -0.28340
      11     H     0.45619  0.45619  0.00000  0.08762
      12     H     0.45217  0.45217  0.00000  0.09566
      13     H     0.45676  0.45676  0.00000  0.08649
      14     H     0.45337  0.45337  0.00000  0.09326
      15     H     0.44616  0.44616  0.00000  0.10767

   Total alpha = 21.00000, Total beta = 21.00000, Total charge = -0.00000
