  ==> Input File <==

--------------------------------------------------------------------------
set {
	reference rhf
	basis cc-pvtz
}

set_num_threads( 4 )
memory 2 gb

molecule MOL {
0 1

H	 -2.644180	 -0.653737	 1.272255
C	 -2.092774	 -0.380414	 0.391915
O	 -0.808934	 -0.154049	 0.752536
F	 -2.163230	 -1.351640	 -0.507133
F	 -2.627232	 0.691260	 -0.169301
C	 0.085006	 0.250800	 -0.215074
C	 1.370439	 -0.548013	 -0.012993
Cl	 0.421658	 1.987697	 -0.091007
H	 -0.272219	 0.063284	 -1.212508
F	 1.350070	 -1.639255	 -0.735349
F	 1.461001	 -0.899535	 1.247779
F	 2.434638	 0.139980	 -0.323472

	symmetry c1
}
set optking {
	frozen_dihedral = ("
		10 7 6 9
	")
}

ee = optimize('scf')
oeprop('DIPOLE', 'QUADRUPOLE', 'MULLIKEN_CHARGES')
f=open( 'psi4out.xyz', 'w' )
f.write( "12  " )
f.write( str(ee) + "\n" )
f.write( MOL.save_string_xyz() )
f.close()
--------------------------------------------------------------------------

    Molecular point group: c1
  Charge       = 0
  Multiplicity = 1
  Basis Set: CC-PVTZ
  Basis Set:
  @DF-RHF Final Energy: -1146.61348652419429
    Total Energy =                      -1146.6134865241938314
    Molecular point group: c1
  Basis Set: CC-PVTZ
  Basis Set:
  Basis Set: CC-PVTZ
  Basis Set:
  @DF-RHF Final Energy: -1146.61437317015634
    Total Energy =                      -1146.6143731701558863
  Basis Set: CC-PVTZ
  Basis Set:
  Basis Set: CC-PVTZ
  Basis Set:
  @DF-RHF Final Energy: -1146.61556114621453
    Total Energy =                      -1146.6155611462149864
  Basis Set: CC-PVTZ
  Basis Set:
  Basis Set: CC-PVTZ
  Basis Set:
  @DF-RHF Final Energy: -1146.61563013860632
    Total Energy =                      -1146.6156301386063205
  Basis Set: CC-PVTZ
  Basis Set:
  Basis Set: CC-PVTZ
  Basis Set:
  @DF-RHF Final Energy: -1146.61564104339232
    Total Energy =                      -1146.6156410433939072
  Basis Set: CC-PVTZ
  Basis Set:
  Basis Set: CC-PVTZ
  Basis Set:
  @DF-RHF Final Energy: -1146.61564316290924
    Total Energy =                      -1146.6156431629087820
  Basis Set: CC-PVTZ
  Basis Set:
  Basis Set: CC-PVTZ
  Basis Set:
  @DF-RHF Final Energy: -1146.61564423192976
    Total Energy =                      -1146.6156442319293092
  Basis Set: CC-PVTZ
  Basis Set:
  Charge       = 0
  Multiplicity = 1
  Basis Set: CC-PVTZ
  Basis Set:

    Orbital Energies (a.u.)
    -----------------------

    Doubly Occupied:

       1A   -104.857331     2A    -26.354951     3A    -26.353823
       4A    -26.351937     5A    -26.342659     6A    -26.342422
       7A    -20.639310     8A    -11.521430     9A    -11.482848
      10A    -11.401447    11A    -10.582902    12A     -8.049705
      13A     -8.047698    14A     -8.047637    15A     -1.768205
      16A     -1.723924    17A     -1.663968    18A     -1.659457
      19A     -1.644046    20A     -1.485049    21A     -1.177497
      22A     -1.052513    23A     -0.989583    24A     -0.924105
      25A     -0.863628    26A     -0.857696    27A     -0.851893
      28A     -0.829378    29A     -0.817445    30A     -0.794793
      31A     -0.731585    32A     -0.731193    33A     -0.711789
      34A     -0.708166    35A     -0.683748    36A     -0.681406
      37A     -0.665003    38A     -0.663426    39A     -0.649997
      40A     -0.637074    41A     -0.597911    42A     -0.581052
      43A     -0.525550    44A     -0.477678    45A     -0.470547

  @DF-RHF Final Energy: -1146.61564427943085

   => Energetics <=

    Nuclear Repulsion Energy =            737.0145818125283768
    One-Electron Energy =               -3057.2696485095048047
    Two-Electron Energy =                1173.6394224175460295
    DFT Exchange-Correlation Energy =       0.0000000000000000
    Empirical Dispersion Energy =           0.0000000000000000
    PCM Polarization Energy =               0.0000000000000000
    EFP Energy =                            0.0000000000000000
    Total Energy =                      -1146.6156442794303985
    Molecular point group: c1
  Basis Set: CC-PVTZ
  Basis Set:

  -Total Gradient:
     Atom            X                  Y                   Z
    ------   -----------------  -----------------  -----------------
       1        0.000002533054    -0.000066191428    -0.000005365164
       2        0.000016899452    -0.000060747280     0.000090510410
       3        0.000000732232     0.000151934609     0.000091202706
       4       -0.000041071296     0.000038002854    -0.000004682275
       5        0.000065307699     0.000004268615    -0.000057443560
       6        0.005579764654     0.007532330018    -0.004813096085
       7       -0.004231057444    -0.004842588569     0.006641764787
       8       -0.000028132962     0.000059885030     0.000039424841
       9       -0.004105708991    -0.005609709257     0.002743959552
      10        0.002750462315     0.002953822719    -0.004751516608
      11       -0.000048480117    -0.000081281827     0.000108570271
      12        0.000038751443    -0.000079725315    -0.000083328874

  **** Optimization is complete! (in 8 steps) ****
    Final optimized geometry and variables:
    Molecular point group: c1

    Geometry (in Angstrom), charge = 0, multiplicity = 1:

    H           -2.656638477475    -0.675004517055     1.227051151930
    C           -2.092313364101    -0.385021658192     0.360167946279
    O           -0.814449178593    -0.167234737478     0.742532367225
    F           -2.150629483454    -1.340983386384    -0.557536029989
    F           -2.620854964061     0.695507155245    -0.190013264867
    C            0.094873123858     0.265178529150    -0.207719643332
    C            1.382135320633    -0.553797995157     0.005005586292
    CL           0.380630130010     2.002667227623    -0.058486307865
    H           -0.273164544220     0.046017975844    -1.194011703448
    F            1.289542588223    -1.659792479879    -0.700511892244
    F            1.571167280815    -0.865072262245     1.255286423756
    F            2.439936628151     0.083846421925    -0.425923937167

  Mulliken Charges: (a.u.)
   Center  Symbol    Alpha    Beta     Spin     Total
       1     H     0.45206  0.45206  0.00000  0.09587
       2     C     2.74011  2.74011  0.00000  0.51979
       3     O     4.15465  4.15465  0.00000 -0.30930
       4     F     4.61880  4.61880  0.00000 -0.23760
       5     F     4.61519  4.61519  0.00000 -0.23038
       6     C     2.94884  2.94884  0.00000  0.10231
       7     C     2.66791  2.66791  0.00000  0.66418
       8    CL     8.56872  8.56872  0.00000 -0.13744
       9     H     0.43088  0.43088  0.00000  0.13824
      10     F     4.60648  4.60648  0.00000 -0.21296
      11     F     4.59677  4.59677  0.00000 -0.19355
      12     F     4.59958  4.59958  0.00000 -0.19917

   Total alpha = 45.00000, Total beta = 45.00000, Total charge = -0.00000
