  ==> Input File <==

--------------------------------------------------------------------------
set {
	reference rhf
	basis 6-31G*
}

set_num_threads( 4 )
memory 2 gb

molecule MOL {
0 1

H	 -3.135461	 -1.215070	 0.001379
O	 -2.310168	 -0.871793	 -0.309793
C	 -2.026376	 0.340750	 0.341611
C	 -0.673256	 0.843270	 -0.132153
H	 -2.792215	 1.080697	 0.115987
H	 -2.013526	 0.200402	 1.421792
C	 0.486613	 -0.083066	 0.235839
H	 -0.715586	 0.970948	 -1.210718
H	 -0.508072	 1.829858	 0.297090
C	 1.840406	 0.433480	 -0.254303
H	 0.300215	 -1.068318	 -0.178947
H	 0.519509	 -0.203625	 1.318070
C	 2.464986	 -0.458123	 -1.326971
H	 1.719429	 1.440188	 -0.648791
H	 2.524326	 0.516503	 0.588196
H	 1.819752	 -0.532832	 -2.197593
H	 3.422349	 -0.066360	 -1.657006
H	 2.630835	 -1.464513	 -0.952560

	symmetry c1
}
set optking {
	frozen_dihedral = ("
		14 10 7 11
	")
}

ee = optimize('scf')
oeprop('DIPOLE', 'QUADRUPOLE', 'MULLIKEN_CHARGES')
f=open( 'psi4out.xyz', 'w' )
f.write( "18  " )
f.write( str(ee) + "\n" )
f.write( MOL.save_string_xyz() )
f.close()
--------------------------------------------------------------------------

    Molecular point group: c1
  Charge       = 0
  Multiplicity = 1
  Basis Set: 6-31G*
  Basis Set:
  @DF-RHF Final Energy:  -271.17414419412205
    Total Energy =                       -271.1741441941219932
    Molecular point group: c1
  Basis Set: 6-31G*
  Basis Set:
  Basis Set: 6-31G*
  Basis Set:
  @DF-RHF Final Energy:  -271.17439464755932
    Total Energy =                       -271.1743946475590974
  Basis Set: 6-31G*
  Basis Set:
  Basis Set: 6-31G*
  Basis Set:
  @DF-RHF Final Energy:  -271.17448338428204
    Total Energy =                       -271.1744833842821549
  Basis Set: 6-31G*
  Basis Set:
  Basis Set: 6-31G*
  Basis Set:
  @DF-RHF Final Energy:  -271.17448117521803
    Total Energy =                       -271.1744811752181477
  Basis Set: 6-31G*
  Basis Set:
  Basis Set: 6-31G*
  Basis Set:
  @DF-RHF Final Energy:  -271.17448496289296
    Total Energy =                       -271.1744849628928478
  Basis Set: 6-31G*
  Basis Set:
  Charge       = 0
  Multiplicity = 1
  Basis Set: 6-31G*
  Basis Set:

    Orbital Energies (a.u.)
    -----------------------

    Doubly Occupied:

       1A    -20.553189     2A    -11.267828     3A    -11.212302
       4A    -11.210269     5A    -11.205994     6A    -11.203352
       7A     -1.359828     8A     -1.072312     9A     -1.006997
      10A     -0.911874    11A     -0.820669    12A     -0.781549
      13A     -0.704365    14A     -0.639961    15A     -0.617987
      16A     -0.589052    17A     -0.569224    18A     -0.559593
      19A     -0.507836    20A     -0.505075    21A     -0.497275
      22A     -0.464146    23A     -0.452692    24A     -0.446594
      25A     -0.428033

  @DF-RHF Final Energy:  -271.17448497910777

   => Energetics <=

    Nuclear Repulsion Energy =            250.3484198938242571
    One-Electron Energy =                -863.8698142095761341
    Two-Electron Energy =                 342.3469093366441030
    DFT Exchange-Correlation Energy =       0.0000000000000000
    Empirical Dispersion Energy =           0.0000000000000000
    PCM Polarization Energy =               0.0000000000000000
    EFP Energy =                            0.0000000000000000
    Total Energy =                       -271.1744849791077741
    Molecular point group: c1
  Basis Set: 6-31G*
  Basis Set:

  -Total Gradient:
     Atom            X                  Y                   Z
    ------   -----------------  -----------------  -----------------
       1       -0.000000006306     0.000000184016    -0.000001151003
       2       -0.000003462768    -0.000000312970    -0.000007290902
       3        0.000004974597    -0.000010214154     0.000010993339
       4       -0.000000366565    -0.000004985460    -0.000009640986
       5        0.000004481433     0.000001837705    -0.000002151695
       6        0.000001284088     0.000005593226     0.000003852010
       7        0.000720389697    -0.000858814436     0.001097692971
       8        0.000002714961     0.000004232236    -0.000004632054
       9       -0.000001298554    -0.000003587757     0.000002464490
      10        0.000186479002     0.000813891860     0.001297622705
      11       -0.000638774980     0.000593885373    -0.001115372969
      12        0.000001299175    -0.000002191974     0.000001404783
      13        0.000001165607     0.000002358064     0.000001290602
      14       -0.000276935836    -0.000540223761    -0.001273985954
      15       -0.000002410221     0.000000975548     0.000000729093
      16        0.000001949604     0.000002921192    -0.000002305804
      17        0.000001756848    -0.000004148597     0.000001681360
      18       -0.000003239775    -0.000001400111    -0.000001199985

  **** Optimization is complete! (in 6 steps) ****
    Final optimized geometry and variables:
    Molecular point group: c1

    Geometry (in Angstrom), charge = 0, multiplicity = 1:

    H           -3.039524283930    -1.228311880633     0.219547929711
    O           -2.212188813456    -0.879939077158    -0.080341181429
    C           -1.941172732184     0.330876285278     0.579925498575
    C           -0.584564568840     0.841019186099     0.125403690686
    H           -2.707237432724     1.068712612863     0.348121618414
    H           -1.941063067909     0.185899162946     1.659649192506
    C            0.576959996360    -0.079880900798     0.508720832095
    H           -0.611517481375     0.968787001753    -0.953964704883
    H           -0.429705784016     1.828185349611     0.556766237018
    C            1.944124880920     0.426742283188    -0.003520461093
    H            0.373772875731    -1.065625410813     0.105611008535
    H            0.597712909067    -0.186237694144     1.590689690013
    C            2.547887439977    -0.465336665529    -1.089777854278
    H            1.835628409193     1.431229745518    -0.405418186211
    H            2.647215741089     0.505351134353     0.820572955888
    H            1.879234999080    -0.548991374249    -1.942036142304
    H            3.493421010766    -0.067960838748    -1.446985598609
    H            2.729240279771    -1.468659811205    -0.715251025066

  Mulliken Charges: (a.u.)
   Center  Symbol    Alpha    Beta     Spin     Total
       1     H     0.28053  0.28053  0.00000  0.43894
       2     O     4.36972  4.36972  0.00000 -0.73944
       3     C     2.99769  2.99769  0.00000  0.00463
       4     C     3.16197  3.16197  0.00000 -0.32394
       5     H     0.42923  0.42923  0.00000  0.14154
       6     H     0.43268  0.43268  0.00000  0.13464
       7     C     3.15879  3.15879  0.00000 -0.31758
       8     H     0.41522  0.41522  0.00000  0.16957
       9     H     0.42364  0.42364  0.00000  0.15273
      10     C     3.15524  3.15524  0.00000 -0.31048
      11     H     0.40433  0.40433  0.00000  0.19134
      12     H     0.42462  0.42462  0.00000  0.15075
      13     C     3.23947  3.23947  0.00000 -0.47895
      14     H     0.42188  0.42188  0.00000  0.15624
      15     H     0.42118  0.42118  0.00000  0.15764
      16     H     0.42021  0.42021  0.00000  0.15958
      17     H     0.42221  0.42221  0.00000  0.15559
      18     H     0.42140  0.42140  0.00000  0.15720

   Total alpha = 25.00000, Total beta = 25.00000, Total charge = -0.00000
