  ==> Input File <==

--------------------------------------------------------------------------
set {
	reference rhf
	basis 6-31G*
}

set_num_threads( 4 )
memory 2 gb

molecule MOL {
0 1

O	 0.873565	 -3.574119	 -3.959254
C	 0.772686	 -2.384988	 -3.944267
C	 0.534593	 -1.640282	 -2.642334
C	 0.907855	 -1.560808	 -5.205152
C	 1.841928	 -1.495683	 -1.846654
H	 -0.180733	 -2.212871	 -2.062028
H	 0.106911	 -0.660508	 -2.835095
C	 1.631333	 -0.777471	 -0.511575
H	 2.251734	 -2.486566	 -1.686669
H	 2.571924	 -0.945304	 -2.438208
C	 2.915987	 -0.544314	 0.291766
H	 0.927537	 -1.345968	 0.093578
H	 1.161796	 0.185481	 -0.701590
C	 3.373361	 0.914346	 0.347591
H	 3.708709	 -1.142521	 -0.150311
H	 2.780642	 -0.921148	 1.303579
H	 3.506512	 1.320010	 -0.651625
H	 4.322697	 0.999599	 0.867103
H	 2.660624	 1.545032	 0.868198
H	 -0.043239	 -1.088379	 -5.436444
H	 1.204836	 -2.192762	 -6.030513
H	 1.635268	 -0.765798	 -5.068644

	symmetry c1
}
set optking {
	frozen_dihedral = ("
		12 8 11 15
	")
}

ee = optimize('scf')
oeprop('DIPOLE', 'QUADRUPOLE', 'MULLIKEN_CHARGES')
f=open( 'psi4out.xyz', 'w' )
f.write( "22  " )
f.write( str(ee) + "\n" )
f.write( MOL.save_string_xyz() )
f.close()
--------------------------------------------------------------------------

    Molecular point group: c1
  Charge       = 0
  Multiplicity = 1
  Basis Set: 6-31G*
  Basis Set:
  @DF-RHF Final Energy:  -348.09420888318215
    Total Energy =                       -348.0942088831818637
    Molecular point group: c1
  Basis Set: 6-31G*
  Basis Set:
  Basis Set: 6-31G*
  Basis Set:
  @DF-RHF Final Energy:  -348.09449430342522
    Total Energy =                       -348.0944943034249945
  Basis Set: 6-31G*
  Basis Set:
  Basis Set: 6-31G*
  Basis Set:
  @DF-RHF Final Energy:  -348.09455976849262
    Total Energy =                       -348.0945597684924451
  Basis Set: 6-31G*
  Basis Set:
  Basis Set: 6-31G*
  Basis Set:
  @DF-RHF Final Energy:  -348.09462770707455
    Total Energy =                       -348.0946277070744372
  Basis Set: 6-31G*
  Basis Set:
  @DF-RHF Final Energy:  -348.09464580732617
    Total Energy =                       -348.0946458073260601
  @DF-RHF Final Energy:  -348.09465049392657
    Total Energy =                       -348.0946504939263377
  @DF-RHF Final Energy:  -348.09455009156369
    Total Energy =                       -348.0945500915633488
  @DF-RHF Final Energy:  -348.09463593195579
    Total Energy =                       -348.0946359319560770
  Basis Set: 6-31G*
  Basis Set:
  @DF-RHF Final Energy:  -348.09465206347897
    Total Energy =                       -348.0946520634791455
  Basis Set: 6-31G*
  Basis Set:
  Basis Set: 6-31G*
  Basis Set:
  @DF-RHF Final Energy:  -348.09465089389403
    Total Energy =                       -348.0946508938944817
  Basis Set: 6-31G*
  Basis Set:
  Basis Set: 6-31G*
  Basis Set:
  @DF-RHF Final Energy:  -348.09465386360444
    Total Energy =                       -348.0946538636047762
  Basis Set: 6-31G*
  Basis Set:
  Charge       = 0
  Multiplicity = 1
  Basis Set: 6-31G*
  Basis Set:

    Orbital Energies (a.u.)
    -----------------------

    Doubly Occupied:

       1A    -20.547409     2A    -11.324559     3A    -11.230618
       4A    -11.229104     5A    -11.228252     6A    -11.222026
       7A    -11.220357     8A    -11.213559     9A     -1.393175
      10A     -1.094874    11A     -1.044465    12A     -1.000562
      13A     -0.938345    14A     -0.849406    15A     -0.796693
      16A     -0.732816    17A     -0.660854    18A     -0.646613
      19A     -0.627010    20A     -0.614843    21A     -0.597591
      22A     -0.585737    23A     -0.556995    24A     -0.545393
      25A     -0.539956    26A     -0.510855    27A     -0.500482
      28A     -0.489645    29A     -0.472996    30A     -0.463681
      31A     -0.458362    32A     -0.396165

  @DF-RHF Final Energy:  -348.09465399484674

   => Energetics <=

    Nuclear Repulsion Energy =            370.4061626045531170
    One-Electron Energy =               -1205.5348373376759810
    Two-Electron Energy =                 487.0340207382765243
    DFT Exchange-Correlation Energy =       0.0000000000000000
    Empirical Dispersion Energy =           0.0000000000000000
    PCM Polarization Energy =               0.0000000000000000
    EFP Energy =                            0.0000000000000000
    Total Energy =                       -348.0946539948462828
    Molecular point group: c1
  Basis Set: 6-31G*
  Basis Set:

  -Total Gradient:
     Atom            X                  Y                   Z
    ------   -----------------  -----------------  -----------------
       1        0.000008211020    -0.000000369557     0.000010432674
       2        0.000013879478     0.000007216855    -0.000021239145
       3        0.000009800668     0.000009377359     0.000000921032
       4       -0.000031386338    -0.000015728872    -0.000007743508
       5       -0.000003967889    -0.000011096525     0.000014266826
       6       -0.000010497790    -0.000000150685     0.000001257661
       7       -0.000000069890    -0.000003897100     0.000004947284
       8        0.001076331067    -0.001861409300    -0.001281084743
       9       -0.000001094159     0.000003765811    -0.000003500636
      10       -0.000002064777     0.000002360377    -0.000004445844
      11       -0.000808509306    -0.001544565675     0.001752471566
      12       -0.000771965146     0.001802828230     0.000783447927
      13        0.000001339178     0.000001481217     0.000001170009
      14       -0.000000656677    -0.000001994511    -0.000001583059
      15        0.000504211482     0.001605666684    -0.001259494942
      16       -0.000000409659    -0.000000138290     0.000000445805
      17       -0.000001153701     0.000000238419    -0.000000498294
      18        0.000001181129    -0.000000163772    -0.000001073499
      19        0.000000595536    -0.000001050409     0.000001579216
      20        0.000005860291     0.000006521308     0.000002446993
      21        0.000002339708     0.000000739048     0.000000878875
      22        0.000008025774     0.000000369387     0.000006397804

  **** Optimization is complete! (in 12 steps) ****
    Final optimized geometry and variables:
    Molecular point group: c1

    Geometry (in Angstrom), charge = 0, multiplicity = 1:

    O           -0.743999748225    -2.197510511580    -1.776789323777
    C           -0.840488407332    -1.008240881079    -1.754502343778
    C           -1.090349410238    -0.271049472552    -0.450505432437
    C           -0.695469496204    -0.176149605256    -3.009326346022
    C            0.213431082437    -0.106115321231     0.345462013268
    H           -1.796410440677    -0.856425807777     0.128348262555
    H           -1.533559630208     0.702315755002    -0.641268154527
    C            0.000504337899     0.600318741669     1.685344085110
    H            0.644020154756    -1.088588084658     0.512267571865
    H            0.936342200264     0.455108574273    -0.244674310385
    C            1.307444107243     0.813861507814     2.480409529622
    H           -0.712802111374     0.036451056890     2.280455931360
    H           -0.472393720701     1.563569138786     1.504567058669
    C            1.762135851471     2.274466567349     2.510104855525
    H            2.102294399366     0.217978694588     2.039103236523
    H            1.187629596413     0.458631716419     3.499060072526
    H            1.909439626128     2.659576791543     1.504515681061
    H            2.699917232209     2.384000969584     3.046051082868
    H            1.024729415509     2.904460948818     2.999138893936
    H           -1.645799150028     0.294638429120    -3.246882585573
    H           -0.389119584121    -0.802733922774    -3.835331797651
    H            0.028264081338     0.620187730876    -2.861892028284

  Mulliken Charges: (a.u.)
   Center  Symbol    Alpha    Beta     Spin     Total
       1     O     4.26212  4.26212  0.00000 -0.52425
       2     C     2.73726  2.73726  0.00000  0.52549
       3     C     3.20068  3.20068  0.00000 -0.40136
       4     C     3.28952  3.28952  0.00000 -0.57904
       5     C     3.16385  3.16385  0.00000 -0.32770
       6     H     0.40103  0.40103  0.00000  0.19794
       7     H     0.41674  0.41674  0.00000  0.16651
       8     C     3.15516  3.15516  0.00000 -0.31031
       9     H     0.40526  0.40526  0.00000  0.18947
      10     H     0.42071  0.42071  0.00000  0.15857
      11     C     3.15649  3.15649  0.00000 -0.31299
      12     H     0.41725  0.41725  0.00000  0.16549
      13     H     0.42115  0.42115  0.00000  0.15770
      14     C     3.24006  3.24006  0.00000 -0.48013
      15     H     0.41862  0.41862  0.00000  0.16277
      16     H     0.41753  0.41753  0.00000  0.16495
      17     H     0.42305  0.42305  0.00000  0.15390
      18     H     0.41890  0.41890  0.00000  0.16220
      19     H     0.42090  0.42090  0.00000  0.15820
      20     H     0.40681  0.40681  0.00000  0.18639
      21     H     0.39705  0.39705  0.00000  0.20589
      22     H     0.40985  0.40985  0.00000  0.18030

   Total alpha = 32.00000, Total beta = 32.00000, Total charge =  0.00000
