                              Psi4 1.0.54 Driver

  ==> Input File <==

--------------------------------------------------------------------------
set {
	reference rhf
	basis cc-pvtz
}

set_num_threads( 4 )
memory 2 gb

molecule MOL {
0 1

H	 -3.436473	 1.252944	 -1.023892
O	 -3.458596	 0.315260	 -0.960865
C	 -3.176635	 -0.080824	 0.355601
C	 -1.763371	 0.265266	 0.799691
H	 -3.321825	 -1.153438	 0.379502
H	 -3.895468	 0.357385	 1.043382
C	 -0.673390	 -0.426948	 -0.013392
H	 -1.631049	 1.344913	 0.747560
H	 -1.664587	 -0.001624	 1.849167
C	 0.737842	 -0.043159	 0.423759
H	 -0.806103	 -0.190518	 -1.063345
H	 -0.797221	 -1.503753	 0.074146
C	 1.824000	 -0.743224	 -0.390623
H	 0.850588	 1.033777	 0.343840
H	 0.868587	 -0.286314	 1.476203
C	 3.255957	 -0.453067	 0.062319
H	 1.718250	 -0.470599	 -1.438164
H	 1.658105	 -1.815850	 -0.339904
C	 4.336839	 -1.182952	 -0.731473
H	 3.347322	 -0.729468	 1.108278
H	 3.436506	 0.617764	 0.016035
H	 4.178651	 -2.256500	 -0.708063
H	 5.318374	 -0.985750	 -0.315611
H	 4.356200	 -0.874305	 -1.769725

	symmetry c1
}
set optking {
	frozen_dihedral = ("
		20 16 13 17
	")
}

ee,wfn = optimize('scf', return_wfn=True)
oeprop( wfn, 'DIPOLE', 'QUADRUPOLE', 'MULLIKEN_CHARGES')
f=open( 'psi4out.xyz', 'w' )
f.write( "24  " )
f.write( str(ee) + "\n" )
f.write( MOL.save_string_xyz() )
f.close()
--------------------------------------------------------------------------

    Molecular point group: c1
  Charge       = 0
  Multiplicity = 1
  Basis Set: CC-PVTZ
  Basis Set:
  @DF-RHF Final Energy:  -349.38176873531899
    Total Energy =                       -349.3817687353190422
    Molecular point group: c1
  Basis Set: CC-PVTZ
  Basis Set:
  Basis Set: CC-PVTZ
  Basis Set:
  @DF-RHF Final Energy:  -349.38202611948873
    Total Energy =                       -349.3820261194885006
  Basis Set: CC-PVTZ
  Basis Set:
  Basis Set: CC-PVTZ
  Basis Set:
  @DF-RHF Final Energy:  -349.38215013835622
    Total Energy =                       -349.3821501383557688
  Basis Set: CC-PVTZ
  Basis Set:
  Basis Set: CC-PVTZ
  Basis Set:
  @DF-RHF Final Energy:  -349.38215152488840
    Total Energy =                       -349.3821515248891387
  Basis Set: CC-PVTZ
  Basis Set:
  Charge       = 0
  Multiplicity = 1
  Basis Set: CC-PVTZ
  Basis Set:

    Orbital Energies (a.u.)
    -----------------------

    Doubly Occupied:

       1A    -20.546306     2A    -11.265539     3A    -11.215204
       4A    -11.211657     5A    -11.210568     6A    -11.209181
       7A    -11.209005     8A    -11.205245     9A     -1.364157
      10A     -1.089985    11A     -1.050340    12A     -0.989093
      13A     -0.914813    14A     -0.842798    15A     -0.797896
      16A     -0.788501    17A     -0.681717    18A     -0.658739
      19A     -0.631998    20A     -0.615833    21A     -0.592817
      22A     -0.586265    23A     -0.547183    24A     -0.544683
      25A     -0.531956    26A     -0.499225    27A     -0.497245
      28A     -0.472154    29A     -0.468125    30A     -0.461448
      31A     -0.458652    32A     -0.456346    33A     -0.420814

  @DF-RHF Final Energy:  -349.38215201025412

   => Energetics <=

    Nuclear Repulsion Energy =            380.9900833660493618
    One-Electron Energy =               -1228.6734850532932342
    Two-Electron Energy =                 498.3012496769900963
    DFT Exchange-Correlation Energy =       0.0000000000000000
    Empirical Dispersion Energy =           0.0000000000000000
    PCM Polarization Energy =               0.0000000000000000
    EFP Energy =                            0.0000000000000000
    Total Energy =                       -349.3821520102537761
    Molecular point group: c1
  Basis Set: CC-PVTZ
  Basis Set:

  -Total Gradient:
     Atom            X                  Y                   Z
    ------   -----------------  -----------------  -----------------
       1       -0.000000374755    -0.000001557494     0.000000129355
       2       -0.000000963982     0.000000935676    -0.000005332812
       3        0.000001076739    -0.000002180455     0.000005515584
       4        0.000005641608    -0.000004457413    -0.000000892198
       5       -0.000002184181     0.000000948549    -0.000002492049
       6        0.000000787938    -0.000002068453     0.000000019967
       7       -0.000022928306     0.000011952965    -0.000002385589
       8        0.000001070373    -0.000000982161    -0.000000628680
       9        0.000001418167     0.000001590957     0.000001740982
      10       -0.000009851476    -0.000005009035    -0.000003216486
      11       -0.000000588760     0.000003659881    -0.000001764926
      12        0.000004854867     0.000000484773     0.000004494902
      13        0.000012473029    -0.000010065027     0.000008161790
      14       -0.000002696881     0.000002448421    -0.000004697299
      15        0.000008702129    -0.000000333726    -0.000004005670
      16       -0.000003273018    -0.000036562822     0.000003973565
      17       -0.000009938406     0.000010195847     0.000006643122
      18       -0.000005170641     0.000000838667    -0.000007022551
      19        0.000014366205     0.000035224311     0.000015529447
      20       -0.000001054593     0.000017803092     0.000007899366
      21        0.000009123091    -0.000012673400    -0.000003411662
      22       -0.000008039101    -0.000006395528     0.000005033505
      23        0.000011323488    -0.000003777510    -0.000003259333
      24       -0.000003773547    -0.000000020115    -0.000020032332

  **** Optimization is complete! (in 5 steps) ****
    Final optimized geometry and variables:
    Molecular point group: c1

    Geometry (in Angstrom), charge = 0, multiplicity = 1:

    H           -3.497774040021     1.539923745030    -0.954626234090
    O           -3.522728166383     0.600946212217    -0.917552039897
    C           -3.261988356266     0.168697838383     0.391819645726
    C           -1.854793936490     0.498577866599     0.866506815564
    H           -3.410207204259    -0.903747469020     0.384113394757
    H           -3.990280069291     0.590037659510     1.080191869615
    C           -0.754162266256    -0.172930568248     0.050436739315
    H           -1.719321331964     1.578919915326     0.846900699334
    H           -1.772192382905     0.201962909319     1.909360732179
    C            0.650853863133     0.193803859202     0.519810479802
    H           -0.870464872907     0.093520254465    -0.994222521240
    H           -0.881603822030    -1.251524839777     0.105605107788
    C            1.754199407874    -0.484218029734    -0.287263183470
    H            0.777755115050     1.272551370874     0.463163198191
    H            0.761475916940    -0.069360792844     1.569368266209
    C            3.160720505862    -0.116186958687     0.176520872541
    H            1.643293327525    -0.222138103418    -1.336764226051
    H            1.629704200235    -1.563042976263    -0.229921236266
    C            4.257666037262    -0.798615512806    -0.633936800283
    H            3.272801744201    -0.377660182760     1.225326300112
    H            3.287543305384     0.961438017839     0.117093581397
    H            4.179735442398    -1.878687855533    -0.566095179056
    H            5.242424436023    -0.515672988452    -0.279872480197
    H            4.193678741143    -0.529745918487    -1.683151494997

  Mulliken Charges: (a.u.)
   Center  Symbol    Alpha    Beta     Spin     Total
       1     H     0.39531  0.39531  0.00000  0.20937
       2     O     4.20373  4.20373  0.00000 -0.40745
       3     C     2.97757  2.97757  0.00000  0.04486
       4     C     3.10271  3.10271  0.00000 -0.20542
       5     H     0.45889  0.45889  0.00000  0.08222
       6     H     0.46029  0.46029  0.00000  0.07941
       7     C     3.08787  3.08787  0.00000 -0.17573
       8     H     0.45905  0.45905  0.00000  0.08190
       9     H     0.45330  0.45330  0.00000  0.09340
      10     C     3.08835  3.08835  0.00000 -0.17669
      11     H     0.44646  0.44646  0.00000  0.10707
      12     H     0.45544  0.45544  0.00000  0.08913
      13     C     3.08578  3.08578  0.00000 -0.17155
      14     H     0.45558  0.45558  0.00000  0.08883
      15     H     0.45616  0.45616  0.00000  0.08769
      16     C     3.08403  3.08403  0.00000 -0.16806
      17     H     0.45459  0.45459  0.00000  0.09083
      18     H     0.45510  0.45510  0.00000  0.08981
      19     C     3.15037  3.15037  0.00000 -0.30074
      20     H     0.45516  0.45516  0.00000  0.08968
      21     H     0.45522  0.45522  0.00000  0.08956
      22     H     0.45519  0.45519  0.00000  0.08963
      23     H     0.44880  0.44880  0.00000  0.10239
      24     H     0.45507  0.45507  0.00000  0.08987

   Total alpha = 33.00000, Total beta = 33.00000, Total charge = -0.00000

*** Psi4 exiting successfully. Buy a developer a beer!
