  ==> Input File <==

--------------------------------------------------------------------------
set {
	reference rhf
	basis cc-pvtz
}

set_num_threads( 4 )
memory 2 gb

molecule MOL {
0 1

H	 2.751583	 -0.210472	 -0.702643
O	 1.911421	 -0.642685	 -0.735138
C	 1.050374	 0.054877	 0.000135
C	 -0.318151	 -0.570512	 0.000144
O	 1.364360	 1.042685	 0.569007
C	 -1.454884	 0.441630	 -0.000560
H	 -0.371613	 -1.223646	 -0.864985
H	 -0.371920	 -1.222758	 0.865929
C	 -2.822577	 -0.232186	 0.000063
H	 -1.359760	 1.084704	 -0.867077
H	 -1.359641	 1.085996	 0.864983
H	 -2.954352	 -0.858985	 -0.875745
H	 -3.615886	 0.505352	 0.000019
H	 -2.953878	 -0.858359	 0.876394

	symmetry c1
}
set optking {
	frozen_dihedral = ("
		2 3 4 7
	")
}

ee = optimize('scf')
oeprop('DIPOLE', 'QUADRUPOLE', 'MULLIKEN_CHARGES')
f=open( 'psi4out.xyz', 'w' )
f.write( "14  " )
f.write( str(ee) + "\n" )
f.write( MOL.save_string_xyz() )
f.close()
--------------------------------------------------------------------------

    Molecular point group: c1
  Charge       = 0
  Multiplicity = 1
  Basis Set: CC-PVTZ
  Basis Set:
  @DF-RHF Final Energy:  -305.99970461376535
    Total Energy =                       -305.9997046137651751
    Molecular point group: c1
  Basis Set: CC-PVTZ
  Basis Set:
  Basis Set: CC-PVTZ
  Basis Set:
  @DF-RHF Final Energy:  -305.99997527146957
    Total Energy =                       -305.9999752714695660
  Basis Set: CC-PVTZ
  Basis Set:
  Basis Set: CC-PVTZ
  Basis Set:
  @DF-RHF Final Energy:  -305.99989573908226
    Total Energy =                       -305.9998957390823193
  Basis Set: CC-PVTZ
  Basis Set:
  Basis Set: CC-PVTZ
  Basis Set:
  @DF-RHF Final Energy:  -306.00004206378514
    Total Energy =                       -306.0000420637850311
  Basis Set: CC-PVTZ
  Basis Set:
  Charge       = 0
  Multiplicity = 1
  Basis Set: CC-PVTZ
  Basis Set:

    Orbital Energies (a.u.)
    -----------------------

    Doubly Occupied:

       1A    -20.606028     2A    -20.539283     3A    -11.374078
       4A    -11.239268     5A    -11.226639     6A    -11.216307
       7A     -1.478517     8A     -1.369093     9A     -1.084800
      10A     -0.980632    11A     -0.858623    12A     -0.797654
      13A     -0.705734    14A     -0.691501    15A     -0.661853
      16A     -0.623466    17A     -0.596667    18A     -0.574143
      19A     -0.548204    20A     -0.509818    21A     -0.493770
      22A     -0.486178    23A     -0.479123    24A     -0.445812

  @DF-RHF Final Energy:  -306.00004266460667

   => Energetics <=

    Nuclear Repulsion Energy =            240.3882286849990635
    One-Electron Energy =                -893.6021610299168287
    Two-Electron Energy =                 347.2138896803110129
    DFT Exchange-Correlation Energy =       0.0000000000000000
    Empirical Dispersion Energy =           0.0000000000000000
    PCM Polarization Energy =               0.0000000000000000
    EFP Energy =                            0.0000000000000000
    Total Energy =                       -306.0000426646067808
    Molecular point group: c1
  Basis Set: CC-PVTZ
  Basis Set:

  -Total Gradient:
     Atom            X                  Y                   Z
    ------   -----------------  -----------------  -----------------
       1        0.000003175778    -0.000000931678     0.000010893950
       2       -0.000167836501     0.000492203478    -0.000895657759
       3        0.000349818360    -0.000806725190     0.001413163815
       4       -0.000631718314     0.001404353917    -0.001160134889
       5       -0.000015145724    -0.000097429056    -0.000082449786
       6        0.000027581093    -0.000037245674     0.000027606506
       7        0.000422706764    -0.000920905114     0.000687252583
       8        0.000012194785    -0.000024234980     0.000026639850
       9       -0.000012756633    -0.000001765674    -0.000019937393
      10       -0.000004009393     0.000002314766    -0.000007393325
      11        0.000011803484    -0.000008694334     0.000000477914
      12       -0.000006781649    -0.000004474102     0.000000861134
      13        0.000004905015     0.000000418697    -0.000003509966
      14        0.000006062940     0.000003114943     0.000002187365

  **** Optimization is complete! (in 5 steps) ****
    Final optimized geometry and variables:
    Molecular point group: c1

    Geometry (in Angstrom), charge = 0, multiplicity = 1:

    H            2.785052341514    -0.208417621208    -0.595279121645
    O            1.946458060935    -0.636349964214    -0.685054100612
    C            1.053118400253     0.039898392648     0.029260203717
    C           -0.313296843871    -0.592899043591    -0.003688188249
    O            1.338161219365     1.020033876486     0.627028897590
    C           -1.446549583822     0.427670351674     0.022270006596
    H           -0.378465517364    -1.248660668565    -0.861339599349
    H           -0.367449623938    -1.229900142488     0.875584047455
    C           -2.817626121104    -0.237423110582     0.058503445844
    H           -1.373414631720     1.065211785649    -0.852785307083
    H           -1.320864159493     1.071753312502     0.882410806473
    H           -2.973113368011    -0.871567826117    -0.807880580229
    H           -3.606051649785     0.505294875037     0.069886133870
    H           -2.931103891670    -0.853813129603     0.944068432659

  Mulliken Charges: (a.u.)
   Center  Symbol    Alpha    Beta     Spin     Total
       1     H     0.38097  0.38097  0.00000  0.23806
       2     O     4.15815  4.15815  0.00000 -0.31629
       3     C     2.80939  2.80939  0.00000  0.38122
       4     C     3.09599  3.09599  0.00000 -0.19198
       5     O     4.19510  4.19510  0.00000 -0.39021
       6     C     3.08404  3.08404  0.00000 -0.16808
       7     H     0.43677  0.43677  0.00000  0.12646
       8     H     0.44410  0.44410  0.00000  0.11180
       9     C     3.14992  3.14992  0.00000 -0.29984
      10     H     0.45066  0.45066  0.00000  0.09868
      11     H     0.43990  0.43990  0.00000  0.12020
      12     H     0.45526  0.45526  0.00000  0.08949
      13     H     0.44533  0.44533  0.00000  0.10933
      14     H     0.45442  0.45442  0.00000  0.09117

   Total alpha = 24.00000, Total beta = 24.00000, Total charge =  0.00000
