  ==> Input File <==

--------------------------------------------------------------------------
set {
	reference rhf
	basis cc-pvtz
}

set_num_threads( 4 )
memory 2 gb

molecule MOL {
0 1

H	 -0.000105	 1.988529	 0.748933
O	 -0.000098	 1.879786	 -0.188206
C	 -0.000014	 0.545691	 -0.532416
C	 0.851632	 -0.254386	 0.454678
C	 0.404965	 0.378384	 -1.997945
H	 -1.012238	 0.179659	 -0.442508
F	 0.362533	 -0.113516	 1.662071
F	 0.868870	 -1.533054	 0.174636
F	 2.094341	 0.177647	 0.474562
F	 -0.442497	 1.026903	 -2.758267
F	 0.404669	 -0.875422	 -2.374352
F	 1.603042	 0.873652	 -2.223107

	symmetry c1
}
set optking {
	frozen_dihedral = ("
		6 3 2 1
	")
}

ee = optimize('scf')
oeprop('DIPOLE', 'QUADRUPOLE', 'MULLIKEN_CHARGES')
f=open( 'psi4out.xyz', 'w' )
f.write( "12  " )
f.write( str(ee) + "\n" )
f.write( MOL.save_string_xyz() )
f.close()
--------------------------------------------------------------------------

    Molecular point group: c1
  Charge       = 0
  Multiplicity = 1
  Basis Set: CC-PVTZ
  Basis Set:
  @DF-RHF Final Energy:  -786.58488407407299
    Total Energy =                       -786.5848840740729884
    Molecular point group: c1
  Basis Set: CC-PVTZ
  Basis Set:
  Basis Set: CC-PVTZ
  Basis Set:
  @DF-RHF Final Energy:  -786.58675237895068
    Total Energy =                       -786.5867523789506777
  Basis Set: CC-PVTZ
  Basis Set:
  Basis Set: CC-PVTZ
  Basis Set:
  @DF-RHF Final Energy:  -786.58715286930340
    Total Energy =                       -786.5871528693035089
  Basis Set: CC-PVTZ
  Basis Set:
  Basis Set: CC-PVTZ
  Basis Set:
  @DF-RHF Final Energy:  -786.58721593670384
    Total Energy =                       -786.5872159367040695
  Basis Set: CC-PVTZ
  Basis Set:
  Basis Set: CC-PVTZ
  Basis Set:
  @DF-RHF Final Energy:  -786.58722978909918
    Total Energy =                       -786.5872297890989557
  Basis Set: CC-PVTZ
  Basis Set:
  Basis Set: CC-PVTZ
  Basis Set:
  @DF-RHF Final Energy:  -786.58723303217573
    Total Energy =                       -786.5872330321758454
  Basis Set: CC-PVTZ
  Basis Set:
  Charge       = 0
  Multiplicity = 1
  Basis Set: CC-PVTZ
  Basis Set:

    Orbital Energies (a.u.)
    -----------------------

    Doubly Occupied:

       1A    -26.364108     2A    -26.360537     3A    -26.358739
       4A    -26.351736     5A    -26.348123     6A    -26.347996
       7A    -20.608017     8A    -11.524038     9A    -11.515658
      10A    -11.351610    11A     -1.774331    12A     -1.762269
      13A     -1.669374    14A     -1.667849    15A     -1.657635
      16A     -1.655835    17A     -1.438470    18A     -1.104710
      19A     -1.002161    20A     -0.942334    21A     -0.875914
      22A     -0.866590    23A     -0.861920    24A     -0.849464
      25A     -0.838943    26A     -0.794301    27A     -0.757380
      28A     -0.739879    29A     -0.726864    30A     -0.724759
      31A     -0.718970    32A     -0.693545    33A     -0.690037
      34A     -0.675241    35A     -0.674334    36A     -0.669963
      37A     -0.659010    38A     -0.648726    39A     -0.621859
      40A     -0.549594    41A     -0.508980

  @DF-RHF Final Energy:  -786.58723375783427

   => Energetics <=

    Nuclear Repulsion Energy =            671.1743291203175659
    One-Electron Energy =               -2429.6195289335237248
    Two-Electron Energy =                 971.8579660553717758
    DFT Exchange-Correlation Energy =       0.0000000000000000
    Empirical Dispersion Energy =           0.0000000000000000
    PCM Polarization Energy =               0.0000000000000000
    EFP Energy =                            0.0000000000000000
    Total Energy =                       -786.5872337578344968
    Molecular point group: c1
  Basis Set: CC-PVTZ
  Basis Set:

  -Total Gradient:
     Atom            X                  Y                   Z
    ------   -----------------  -----------------  -----------------
       1        0.002070608914     0.000014899090     0.000081035970
       2       -0.002666711032     0.000078056341    -0.000614303215
       3        0.000851797038    -0.000552517847     0.002216040948
       4        0.000001240254     0.000089592970    -0.000055245789
       5        0.000029672417     0.000037829962     0.000041133867
       6       -0.000237825390     0.000415815142    -0.001730158710
       7        0.000014250913    -0.000036365456     0.000051833066
       8        0.000063570526     0.000042019816     0.000033122271
       9       -0.000072018733    -0.000091505163     0.000030392286
      10       -0.000022528136     0.000033524964    -0.000050971238
      11        0.000010908834     0.000006443097     0.000010670255
      12       -0.000042965603    -0.000037792912    -0.000013549724

  **** Optimization is complete! (in 7 steps) ****
    Final optimized geometry and variables:
    Molecular point group: c1

    Geometry (in Angstrom), charge = 0, multiplicity = 1:

    H           -0.706043949652     1.801195971732     1.453820550853
    O           -0.672322112711     1.668674405577     0.522476555901
    C           -0.657767274102     0.326532463962     0.206141287384
    C            0.217563061294    -0.468268228733     1.175150463059
    C           -0.214170668136     0.223923753746    -1.252117430075
    H           -1.648043261274    -0.114883997339     0.246305546059
    F           -0.169711319511    -0.185147179432     2.407328592989
    F            0.079492985170    -1.757284279038     1.003249500036
    F            1.487149657058    -0.171848997862     1.086926944804
    F           -1.088165369840     0.836529177194    -2.013152558060
    F           -0.160828754543    -1.032200089107    -1.632976234426
    F            0.956299885828     0.763712582487    -1.463032353906

  Mulliken Charges: (a.u.)
   Center  Symbol    Alpha    Beta     Spin     Total
       1     H     0.38342  0.38342  0.00000  0.23316
       2     O     4.18610  4.18610  0.00000 -0.37220
       3     C     2.99609  2.99609  0.00000  0.00782
       4     C     2.68443  2.68443  0.00000  0.63114
       5     C     2.67774  2.67774  0.00000  0.64452
       6     H     0.44501  0.44501  0.00000  0.10997
       7     F     4.61457  4.61457  0.00000 -0.22915
       8     F     4.60135  4.60135  0.00000 -0.20270
       9     F     4.59975  4.59975  0.00000 -0.19951
      10     F     4.60369  4.60369  0.00000 -0.20737
      11     F     4.60638  4.60638  0.00000 -0.21277
      12     F     4.60147  4.60147  0.00000 -0.20293

   Total alpha = 41.00000, Total beta = 41.00000, Total charge = -0.00000
