  ==> Input File <==

--------------------------------------------------------------------------
set {
	reference rhf
	basis 6-31G*
}

set_num_threads( 1 )
memory 2 gb

molecule MOL {
0 1

H	 0.483024	 3.012687	 1.407801
C	 0.214521	 2.153090	 2.034396
C	 -1.104744	 1.506138	 1.697343
O	 0.942612	 1.796643	 2.903061
C	 -1.220012	 1.144545	 0.209990
H	 -1.230237	 0.635214	 2.330154
H	 -1.886082	 2.220566	 1.953779
C	 -0.252658	 0.041456	 -0.226725
H	 -2.239995	 0.829577	 0.010704
H	 -1.055698	 2.036631	 -0.392455
C	 1.180775	 0.282413	 0.250794
H	 -0.266029	 -0.034465	 -1.312038
H	 -0.597733	 -0.921000	 0.146291
C	 2.148627	 -0.814315	 -0.201312
H	 1.516199	 1.249228	 -0.115937
H	 1.192670	 0.346017	 1.338083
C	 3.580890	 -0.659131	 0.322722
H	 2.166869	 -0.852443	 -1.289387
H	 1.762857	 -1.776509	 0.128956
C	 4.324889	 0.564933	 -0.213704
H	 4.142010	 -1.551473	 0.056605
H	 3.564836	 -0.624694	 1.410140
H	 4.342616	 0.565491	 -1.300421
H	 3.866655	 1.493402	 0.110242
H	 5.353900	 0.572371	 0.132816

	symmetry c1
}
set optking {
	frozen_dihedral = ("
		6 3 5 8,
		6 3 2 4,
		12 8 11 14,
		8 11 14 18,
		20 17 14 18
	")
}

ee = energy('scf')
oeprop('DIPOLE', 'QUADRUPOLE', 'MULLIKEN_CHARGES')
f=open( 'psi4out.xyz', 'w' )
f.write( "25  " )
f.write( str(ee) + "\n" )
f.write( MOL.save_string_xyz() )
f.close()
--------------------------------------------------------------------------

    Molecular point group: c1

    Geometry (in Angstrom), charge = 0, multiplicity = 1:

       Center              X                  Y                   Z               Mass
    ------------   -----------------  -----------------  -----------------  -----------------
           H         -0.631754492111     2.336574242663     0.646267896021     1.007825032070
           C         -0.900257492111     1.476977242663     1.272862896021    12.000000000000
           C         -2.219522492111     0.830025242663     0.935809896021    12.000000000000
           O         -0.172166492111     1.120530242663     2.141527896021    15.994914619560
           C         -2.334790492111     0.468432242663    -0.551543103979    12.000000000000
           H         -2.345015492111    -0.040898757337     1.568620896021     1.007825032070
           H         -3.000860492111     1.544453242663     1.192245896021     1.007825032070
           C         -1.367436492111    -0.634656757337    -0.988258103979    12.000000000000
           H         -3.354773492111     0.153464242663    -0.750829103979     1.007825032070
           H         -2.170476492111     1.360518242663    -1.153988103979     1.007825032070
           C          0.065996507889    -0.393699757337    -0.510739103979    12.000000000000
           H         -1.380807492111    -0.710577757337    -2.073571103979     1.007825032070
           H         -1.712511492111    -1.597112757337    -0.615242103979     1.007825032070
           C          1.033848507889    -1.490427757337    -0.962845103979    12.000000000000
           H          0.401420507889     0.573115242663    -0.877470103979     1.007825032070
           H          0.077891507889    -0.330095757337     0.576549896021     1.007825032070
           C          2.466111507889    -1.335243757337    -0.438811103979    12.000000000000
           H          1.052090507889    -1.528555757337    -2.050920103979     1.007825032070
           H          0.648078507889    -2.452621757337    -0.632577103979     1.007825032070
           C          3.210110507889    -0.111179757337    -0.975237103979    12.000000000000
           H          3.027231507889    -2.227585757337    -0.704928103979     1.007825032070
           H          2.450057507889    -1.300806757337     0.648606896021     1.007825032070
           H          3.227837507889    -0.110621757337    -2.061954103979     1.007825032070
           H          2.751876507889     0.817289242663    -0.651291103979     1.007825032070
           H          4.239121507889    -0.103741757337    -0.628717103979     1.007825032070

  Charge       = 0
  Multiplicity = 1
  Basis Set: 6-31G*
  Basis Set:

    Orbital Energies (a.u.)
    -----------------------

    Doubly Occupied:

       1A    -20.558069     2A    -11.328728     3A    -11.236167
       4A    -11.234877     5A    -11.221429     6A    -11.212155
       7A    -11.210896     8A    -11.209835     9A    -11.204453
      10A     -1.403616    11A     -1.105472    12A     -1.064135
      13A     -1.005964    14A     -0.942925    15A     -0.880583
      16A     -0.810792    17A     -0.788795    18A     -0.777542
      19A     -0.667354    20A     -0.654402    21A     -0.641146
      22A     -0.621802    23A     -0.606464    24A     -0.581073
      25A     -0.563196    26A     -0.556710    27A     -0.540241
      28A     -0.525775    29A     -0.509729    30A     -0.503138
      31A     -0.480677    32A     -0.468687    33A     -0.455060
      34A     -0.443175    35A     -0.439846    36A     -0.409077

  @DF-RHF Final Energy:  -387.10824577077574

   => Energetics <=

    Nuclear Repulsion Energy =            467.1931307380328917
    One-Electron Energy =               -1450.8749421701743358
    Two-Electron Energy =                 596.5735656613675246
    DFT Exchange-Correlation Energy =       0.0000000000000000
    Empirical Dispersion Energy =           0.0000000000000000
    PCM Polarization Energy =               0.0000000000000000
    EFP Energy =                            0.0000000000000000
    Total Energy =                       -387.1082457707739195

  Mulliken Charges: (a.u.)
   Center  Symbol    Alpha    Beta     Spin     Total
       1     H     0.42937  0.42937  0.00000  0.14126
       2     C     2.83192  2.83192  0.00000  0.33616
       3     C     3.20652  3.20652  0.00000 -0.41303
       4     O     4.24423  4.24423  0.00000 -0.48846
       5     C     3.16742  3.16742  0.00000 -0.33484
       6     H     0.39977  0.39977  0.00000  0.20045
       7     H     0.40512  0.40512  0.00000  0.18976
       8     C     3.14807  3.14807  0.00000 -0.29614
       9     H     0.41135  0.41135  0.00000  0.17731
      10     H     0.41924  0.41924  0.00000  0.16151
      11     C     3.18541  3.18541  0.00000 -0.37082
      12     H     0.41921  0.41921  0.00000  0.16159
      13     H     0.42015  0.42015  0.00000  0.15971
      14     C     3.14877  3.14877  0.00000 -0.29753
      15     H     0.42487  0.42487  0.00000  0.15026
      16     H     0.39383  0.39383  0.00000  0.21234
      17     C     3.15308  3.15308  0.00000 -0.30616
      18     H     0.42621  0.42621  0.00000  0.14759
      19     H     0.42240  0.42240  0.00000  0.15520
      20     C     3.24102  3.24102  0.00000 -0.48203
      21     H     0.42216  0.42216  0.00000  0.15568
      22     H     0.41758  0.41758  0.00000  0.16485
      23     H     0.42427  0.42427  0.00000  0.15147
      24     H     0.41916  0.41916  0.00000  0.16168
      25     H     0.41890  0.41890  0.00000  0.16221

   Total alpha = 36.00000, Total beta = 36.00000, Total charge =  0.00000
