                              Psi4 1.0.54 Driver

  ==> Input File <==

--------------------------------------------------------------------------
set {
	reference rhf
	basis cc-pvtz
}

set_num_threads( 4 )
memory 2 gb

molecule MOL {
0 1

H	 -2.265054	 1.813440	 0.338769
O	 -1.426140	 1.377838	 0.352573
C	 -1.605397	 0.107680	 0.001145
C	 -0.310616	 -0.658853	 0.000791
O	 -2.672042	 -0.326164	 -0.267218
C	 0.926581	 0.227233	 0.000178
H	 -0.327628	 -1.313681	 -0.864448
H	 -0.327041	 -1.313334	 0.866298
C	 2.220156	 -0.582071	 -0.000088
H	 0.899945	 0.878221	 -0.866390
H	 0.900542	 0.878581	 0.866486
C	 3.466689	 0.296012	 -0.000457
H	 2.239073	 -1.234095	 -0.869382
H	 2.239505	 -1.233985	 0.869270
H	 3.493549	 0.935857	 -0.875887
H	 4.368821	 -0.304526	 -0.001199
H	 3.494559	 0.935166	 0.875458

	symmetry c1
}
set optking {
	frozen_dihedral = ("
		2 3 4 7
	")
}

ee,wfn = optimize('scf', return_wfn=True)
oeprop( wfn, 'DIPOLE', 'QUADRUPOLE', 'MULLIKEN_CHARGES')
f=open( 'psi4out.xyz', 'w' )
f.write( "17  " )
f.write( str(ee) + "\n" )
f.write( MOL.save_string_xyz() )
f.close()
--------------------------------------------------------------------------

    Molecular point group: c1
  Charge       = 0
  Multiplicity = 1
  Basis Set: CC-PVTZ
  Basis Set:
  @DF-RHF Final Energy:  -345.04517415294907
    Total Energy =                       -345.0451741529487322
    Molecular point group: c1
  Basis Set: CC-PVTZ
  Basis Set:
  Basis Set: CC-PVTZ
  Basis Set:
  @DF-RHF Final Energy:  -345.04603719195859
    Total Energy =                       -345.0460371919588169
  Basis Set: CC-PVTZ
  Basis Set:
  Basis Set: CC-PVTZ
  Basis Set:
  @DF-RHF Final Energy:  -345.04626183509839
    Total Energy =                       -345.0462618350986759
  Basis Set: CC-PVTZ
  Basis Set:
  Basis Set: CC-PVTZ
  Basis Set:
  @DF-RHF Final Energy:  -345.04614331680210
    Total Energy =                       -345.0461433168021017
  Basis Set: CC-PVTZ
  Basis Set:
  Basis Set: CC-PVTZ
  Basis Set:
  @DF-RHF Final Energy:  -345.04630913669536
    Total Energy =                       -345.0463091366954131
  Basis Set: CC-PVTZ
  Basis Set:
  Basis Set: CC-PVTZ
  Basis Set:
  @DF-RHF Final Energy:  -345.04631032205566
    Total Energy =                       -345.0463103220560015
  Basis Set: CC-PVTZ
  Basis Set:
  Charge       = 0
  Multiplicity = 1
  Basis Set: CC-PVTZ
  Basis Set:

    Orbital Energies (a.u.)
    -----------------------

    Doubly Occupied:

       1A    -20.606825     2A    -20.536442     3A    -11.374096
       4A    -11.239558     5A    -11.225599     6A    -11.223267
       7A    -11.213342     8A     -1.478899     9A     -1.367770
      10A     -1.095177    11A     -1.020037    12A     -0.910101
      13A     -0.828022    14A     -0.809157    15A     -0.703107
      16A     -0.679894    17A     -0.670571    18A     -0.632917
      19A     -0.593279    20A     -0.582154    21A     -0.577312
      22A     -0.535800    23A     -0.518111    24A     -0.500636
      25A     -0.484719    26A     -0.481702    27A     -0.469349
      28A     -0.436497

  @DF-RHF Final Energy:  -345.04631034907777

   => Energetics <=

    Nuclear Repulsion Energy =            305.3698952555286041
    One-Electron Energy =               -1075.2437308953042248
    Two-Electron Energy =                 424.8275252906977357
    DFT Exchange-Correlation Energy =       0.0000000000000000
    Empirical Dispersion Energy =           0.0000000000000000
    PCM Polarization Energy =               0.0000000000000000
    EFP Energy =                            0.0000000000000000
    Total Energy =                       -345.0463103490778849
    Molecular point group: c1
  Basis Set: CC-PVTZ
  Basis Set:

  -Total Gradient:
     Atom            X                  Y                   Z
    ------   -----------------  -----------------  -----------------
       1        0.000003978877    -0.000003229524    -0.000002081452
       2        0.000094110486     0.000121372040    -0.000534832137
       3       -0.000069177488    -0.000063563488     0.000666963066
       4       -0.000280700249    -0.000517830932     0.000256957469
       5        0.000002508394    -0.000006249109    -0.000002168758
       6        0.000002746649     0.000006820563    -0.000014103065
       7        0.000254974592     0.000469199979    -0.000372258256
       8       -0.000001504352    -0.000004646179     0.000001585472
       9        0.000002904967    -0.000004953364    -0.000003441970
      10        0.000000217317     0.000000462968    -0.000001921824
      11       -0.000000468387     0.000001118997    -0.000001652951
      12       -0.000005772910     0.000002711046     0.000008023824
      13       -0.000000273710     0.000002812768    -0.000003170780
      14        0.000000062193    -0.000002799517    -0.000000406263
      15       -0.000001032273    -0.000002618235    -0.000000816337
      16       -0.000004037806    -0.000002031105     0.000002498573
      17        0.000001463693     0.000003423094     0.000000825390

  **** Optimization is complete! (in 7 steps) ****
    Final optimized geometry and variables:
    Molecular point group: c1

    Geometry (in Angstrom), charge = 0, multiplicity = 1:

    H           -2.547219599888     1.565247280257     0.138445206433
    O           -1.659785720400     1.244700850243     0.201101700422
    C           -1.668700793254    -0.053242596172    -0.077063695194
    C           -0.315003502976    -0.714180478797     0.008927326701
    O           -2.665896995263    -0.627810262383    -0.352190301714
    C            0.899972722645     0.207519898820     0.025363328516
    H           -0.267842605409    -1.404544781485    -0.823588201955
    H           -0.341470287347    -1.324334205225     0.906701040651
    C            2.209665552571    -0.573911511569     0.082234786179
    H            0.891514723604     0.835406982868    -0.859809545385
    H            0.838968542766     0.877803621331     0.874554231426
    C            3.437750164448     0.329550833095     0.099444901533
    H            2.267686112735    -1.244790978624    -0.770417885454
    H            2.214244330186    -1.205043823839     0.966842402479
    H            3.479945234914     0.949007650270    -0.790039039388
    H            4.350978101435    -0.252330183016     0.140877930302
    H            3.425913952817     0.989309075130     0.960381948066

  Mulliken Charges: (a.u.)
   Center  Symbol    Alpha    Beta     Spin     Total
       1     H     0.38455  0.38455  0.00000  0.23091
       2     O     4.15069  4.15069  0.00000 -0.30138
       3     C     2.81294  2.81294  0.00000  0.37411
       4     C     3.09900  3.09900  0.00000 -0.19801
       5     O     4.19683  4.19683  0.00000 -0.39366
       6     C     3.08844  3.08844  0.00000 -0.17688
       7     H     0.43484  0.43484  0.00000  0.13031
       8     H     0.43946  0.43946  0.00000  0.12107
       9     C     3.08800  3.08800  0.00000 -0.17600
      10     H     0.44821  0.44821  0.00000  0.10359
      11     H     0.44529  0.44529  0.00000  0.10941
      12     C     3.14945  3.14945  0.00000 -0.29891
      13     H     0.45320  0.45320  0.00000  0.09360
      14     H     0.45381  0.45381  0.00000  0.09238
      15     H     0.45406  0.45406  0.00000  0.09189
      16     H     0.44713  0.44713  0.00000  0.10574
      17     H     0.45409  0.45409  0.00000  0.09183

   Total alpha = 28.00000, Total beta = 28.00000, Total charge = -0.00000

*** Psi4 exiting successfully. Buy a developer a beer!
