  ==> Input File <==

--------------------------------------------------------------------------
set {
	reference rhf
	basis cc-pvtz
}

set_num_threads( 4 )
memory 2 gb

molecule MOL {
0 1

H	 -0.046668	 -0.721224	 -1.849461
C	 -0.588582	 -1.199364	 -1.036691
O	 -1.401606	 -0.295183	 -0.366624
H	 -1.221929	 -1.971642	 -1.448210
H	 0.134184	 -1.660682	 -0.366110
C	 -0.718530	 0.758693	 0.228682
C	 0.718529	 0.758687	 -0.228709
H	 -1.176498	 1.708665	 -0.046615
H	 -0.748705	 0.673525	 1.312779
O	 1.401606	 -0.295166	 0.366636
H	 0.748705	 0.673477	 -1.312803
H	 1.176496	 1.708671	 0.046552
C	 2.714315	 -0.441627	 -0.061017
H	 2.765292	 -0.641548	 -1.128869
H	 3.305661	 0.447341	 0.150952
H	 3.143725	 -1.278506	 0.470147

	symmetry c1
}
set optking {
	frozen_dihedral = ("
		2 3 6 7
	")
}

ee = optimize('scf')
oeprop('DIPOLE', 'QUADRUPOLE', 'MULLIKEN_CHARGES')
f=open( 'psi4out.xyz', 'w' )
f.write( "16  " )
f.write( str(ee) + "\n" )
f.write( MOL.save_string_xyz() )
f.close()
--------------------------------------------------------------------------

    Molecular point group: c1
  Charge       = 0
  Multiplicity = 1
  Basis Set: CC-PVTZ
  Basis Set:
  @DF-RHF Final Energy:  -307.06805352665316
    Total Energy =                       -307.0680535266529887
    Molecular point group: c1
  Basis Set: CC-PVTZ
  Basis Set:
  Basis Set: CC-PVTZ
  Basis Set:
  @DF-RHF Final Energy:  -307.08140964017736
    Total Energy =                       -307.0814096401778102
  Basis Set: CC-PVTZ
  Basis Set:
  Basis Set: CC-PVTZ
  Basis Set:
  @DF-RHF Final Energy:  -307.08683193296611
    Total Energy =                       -307.0868319329659926
  Basis Set: CC-PVTZ
  Basis Set:
  Basis Set: CC-PVTZ
  Basis Set:
  @DF-RHF Final Energy:  -307.08789865246490
    Total Energy =                       -307.0878986524646166
  Basis Set: CC-PVTZ
  Basis Set:
  @DF-RHF Final Energy:  -307.08818930258155
    Total Energy =                       -307.0881893025814406
  @DF-RHF Final Energy:  -307.08838297454236
    Total Energy =                       -307.0883829745424691
  @DF-RHF Final Energy:  -307.08852883376198
    Total Energy =                       -307.0885288337620977
  Basis Set: CC-PVTZ
  Basis Set:
  @DF-RHF Final Energy:  -307.08870569818134
    Total Energy =                       -307.0887056981815135
  Basis Set: CC-PVTZ
  Basis Set:
  Basis Set: CC-PVTZ
  Basis Set:
  @DF-RHF Final Energy:  -307.08871906693355
    Total Energy =                       -307.0887190669341180
  Basis Set: CC-PVTZ
  Basis Set:
  Basis Set: CC-PVTZ
  Basis Set:
  @DF-RHF Final Energy:  -307.08872389946737
    Total Energy =                       -307.0887238994674817
  Basis Set: CC-PVTZ
  Basis Set:
  Charge       = 0
  Multiplicity = 1
  Basis Set: CC-PVTZ
  Basis Set:

    Orbital Energies (a.u.)
    -----------------------

    Doubly Occupied:

       1A    -20.557838     2A    -20.539390     3A    -11.275167
       4A    -11.269865     5A    -11.266913     6A    -11.254066
       7A     -1.395033     8A     -1.365680     9A     -1.031137
      10A     -0.951771    11A     -0.897888    12A     -0.811961
      13A     -0.695517    14A     -0.683711    15A     -0.657745
      16A     -0.636930    17A     -0.627338    18A     -0.591985
      19A     -0.558011    20A     -0.547556    21A     -0.517345
      22A     -0.494240    23A     -0.448091    24A     -0.426987
      25A     -0.405579

  @DF-RHF Final Energy:  -307.08872421148408

   => Energetics <=

    Nuclear Repulsion Energy =            264.6139924684708831
    One-Electron Energy =                -943.5899517438797375
    Two-Electron Energy =                 371.8872350639246633
    DFT Exchange-Correlation Energy =       0.0000000000000000
    Empirical Dispersion Energy =           0.0000000000000000
    PCM Polarization Energy =               0.0000000000000000
    EFP Energy =                            0.0000000000000000
    Total Energy =                       -307.0887242114841911
    Molecular point group: c1
  Basis Set: CC-PVTZ
  Basis Set:

  -Total Gradient:
     Atom            X                  Y                   Z
    ------   -----------------  -----------------  -----------------
       1        0.000001937599     0.000009106553     0.000012190988
       2       -0.000172004286     0.000818900922    -0.001341469648
       3        0.000424015581    -0.001732376813     0.002565357324
       4        0.000002416862     0.000006140592     0.000002017554
       5        0.000008115327    -0.000001530399     0.000001476596
       6       -0.000604159466     0.001750369397    -0.002309939875
       7        0.000329517536    -0.000864213196     0.001091684868
       8        0.000007397202     0.000005009522    -0.000001175242
       9        0.000004583478     0.000006707042    -0.000003650293
      10        0.000054597932     0.000005106367    -0.000031946297
      11       -0.000008044367     0.000001001351    -0.000006345693
      12        0.000000519491    -0.000000191599     0.000000258832
      13       -0.000081448344    -0.000004532621     0.000034616180
      14        0.000011467006     0.000000104947    -0.000006973200
      15        0.000010328658     0.000003572744    -0.000002132921
      16        0.000010759794    -0.000003174808    -0.000003969171

  **** Optimization is complete! (in 11 steps) ****
    Final optimized geometry and variables:
    Molecular point group: c1

    Geometry (in Angstrom), charge = 0, multiplicity = 1:

    H           -0.788640885475    -0.870482061450    -1.793883458697
    C           -1.300759566693    -1.212730917646    -0.899868749791
    O           -1.839677238603    -0.160870751949    -0.160789806859
    H           -2.135961502215    -1.825424042889    -1.207808265591
    H           -0.616419486569    -1.814995787423    -0.316244567088
    C           -1.027868419918     0.842480140497     0.382212388513
    C            0.427119301692     0.900374010478    -0.034263357803
    H           -1.479404156335     1.792568308209     0.116883282352
    H           -1.054265530747     0.755923372388     1.463846837053
    O            1.145655746049    -0.146491215611     0.535911282966
    H            0.530479796075     0.890685308549    -1.117169450058
    H            0.818492545956     1.855019829857     0.315499410299
    C            2.500704201061    -0.146821088853     0.227177261478
    H            2.665950823236    -0.243867881102    -0.843582352437
    H            2.986017544238     0.764907017370     0.568544769809
    H            2.953857218909    -0.990189559615     0.727116558600

  Mulliken Charges: (a.u.)
   Center  Symbol    Alpha    Beta     Spin     Total
       1     H     0.47468  0.47468  0.00000  0.05063
       2     C     3.03504  3.03504  0.00000 -0.07008
       3     O     4.18400  4.18400  0.00000 -0.36800
       4     H     0.44408  0.44408  0.00000  0.11185
       5     H     0.46073  0.46073  0.00000  0.07853
       6     C     2.95414  2.95414  0.00000  0.09172
       7     C     3.00333  3.00333  0.00000 -0.00666
       8     H     0.46513  0.46513  0.00000  0.06974
       9     H     0.46523  0.46523  0.00000  0.06954
      10     O     4.17559  4.17559  0.00000 -0.35118
      11     H     0.46288  0.46288  0.00000  0.07424
      12     H     0.45702  0.45702  0.00000  0.08596
      13     C     3.03599  3.03599  0.00000 -0.07199
      14     H     0.46994  0.46994  0.00000  0.06012
      15     H     0.46750  0.46750  0.00000  0.06499
      16     H     0.44471  0.44471  0.00000  0.11057

   Total alpha = 25.00000, Total beta = 25.00000, Total charge =  0.00000
