  ==> Input File <==

--------------------------------------------------------------------------
set {
	reference rhf
	basis 6-31G*
}

set_num_threads( 4 )
memory 2 gb

molecule MOL {
0 1

H	 -0.009419	 -5.875137	 1.786337
C	 0.324371	 -4.921578	 1.390031
C	 -0.846805	 -3.954059	 1.225051
H	 1.069190	 -4.523361	 2.073328
H	 0.816195	 -5.113004	 0.440446
C	 -0.420312	 -2.599563	 0.668417
H	 -1.339738	 -3.796025	 2.179216
H	 -1.588724	 -4.396714	 0.562477
N	 -1.551359	 -1.700050	 0.554102
H	 0.300799	 -2.145782	 1.342988
H	 0.096768	 -2.742306	 -0.286377
C	 -1.217365	 -0.386708	 0.039277
H	 -2.251478	 -2.118052	 -0.029119
C	 -2.452633	 0.504241	 -0.042481
H	 -0.494956	 0.063367	 0.714937
H	 -0.734474	 -0.434352	 -0.942522
C	 -3.758029	 -0.289423	 -0.010781
H	 -2.394220	 1.093569	 -0.952170
H	 -2.440793	 1.210787	 0.785871
H	 -3.816659	 -0.981993	 -0.845726
H	 -4.617837	 0.370165	 -0.069296
H	 -3.847478	 -0.867502	 0.904682

	symmetry c1
}
set optking {
	frozen_dihedral = ("
		15 12 14 18
	")
}

ee = optimize('scf')
oeprop('DIPOLE', 'QUADRUPOLE', 'MULLIKEN_CHARGES')
f=open( 'psi4out.xyz', 'w' )
f.write( "22  " )
f.write( str(ee) + "\n" )
f.write( MOL.save_string_xyz() )
f.close()
--------------------------------------------------------------------------

    Molecular point group: c1
  Charge       = 0
  Multiplicity = 1
  Basis Set: 6-31G*
  Basis Set:
  @DF-RHF Final Energy:  -290.37276341445784
    Total Energy =                       -290.3727634144576655
    Molecular point group: c1
  Basis Set: 6-31G*
  Basis Set:
  Basis Set: 6-31G*
  Basis Set:
  @DF-RHF Final Energy:  -290.37289710863053
    Total Energy =                       -290.3728971086305251
  Basis Set: 6-31G*
  Basis Set:
  Basis Set: 6-31G*
  Basis Set:
  @DF-RHF Final Energy:  -290.37532077313534
    Total Energy =                       -290.3753207731351722
  Basis Set: 6-31G*
  Basis Set:
  Basis Set: 6-31G*
  Basis Set:
  @DF-RHF Final Energy:  -290.37552895260291
    Total Energy =                       -290.3755289526033607
  Basis Set: 6-31G*
  Basis Set:
  Basis Set: 6-31G*
  Basis Set:
  @DF-RHF Final Energy:  -290.37553856366878
    Total Energy =                       -290.3755385636688970
  Basis Set: 6-31G*
  Basis Set:
  Basis Set: 6-31G*
  Basis Set:
  @DF-RHF Final Energy:  -290.37554545716011
    Total Energy =                       -290.3755454571603423
  Basis Set: 6-31G*
  Basis Set:
  Charge       = 0
  Multiplicity = 1
  Basis Set: 6-31G*
  Basis Set:

    Orbital Energies (a.u.)
    -----------------------

    Doubly Occupied:

       1A    -15.533002     2A    -11.238758     3A    -11.237928
       4A    -11.213903     5A    -11.213715     6A    -11.209843
       7A    -11.205615     8A     -1.204854     9A     -1.056150
      10A     -1.020635    11A     -0.926937    12A     -0.880824
      13A     -0.804528    14A     -0.785309    15A     -0.669188
      16A     -0.628214    17A     -0.624893    18A     -0.592841
      19A     -0.575068    20A     -0.567838    21A     -0.536249
      22A     -0.528382    23A     -0.503066    24A     -0.486613
      25A     -0.481605    26A     -0.471854    27A     -0.463967
      28A     -0.450186    29A     -0.357064

  @DF-RHF Final Energy:  -290.37554813203292

   => Energetics <=

    Nuclear Repulsion Energy =            318.3333563814871923
    One-Electron Energy =               -1022.4797559550313508
    Two-Electron Energy =                 413.7708514415112404
    DFT Exchange-Correlation Energy =       0.0000000000000000
    Empirical Dispersion Energy =           0.0000000000000000
    PCM Polarization Energy =               0.0000000000000000
    EFP Energy =                            0.0000000000000000
    Total Energy =                       -290.3755481320329181
    Molecular point group: c1
  Basis Set: 6-31G*
  Basis Set:

  -Total Gradient:
     Atom            X                  Y                   Z
    ------   -----------------  -----------------  -----------------
       1        0.000001356955    -0.000001224950     0.000000620763
       2        0.000000185231    -0.000001047683     0.000000861599
       3       -0.000001833211     0.000005879413    -0.000001127073
       4       -0.000000882311     0.000000304984    -0.000001469387
       5       -0.000000537408    -0.000000413496     0.000000277323
       6       -0.000002396468     0.000009405183     0.000001993489
       7       -0.000000319207    -0.000001171987     0.000000444061
       8        0.000000270291     0.000000090359    -0.000000246561
       9       -0.000002481126     0.000019703442    -0.000030164742
      10        0.000005736440    -0.000001318107     0.000000875589
      11        0.000000372505    -0.000000409864     0.000001343861
      12        0.002062399831     0.002477896167    -0.005674738939
      13       -0.000004730328    -0.000000680226     0.000003383982
      14        0.003031931125     0.003896931109     0.004241031317
      15       -0.002202222234    -0.002702716837     0.004164424270
      16        0.000000701269    -0.000002411283    -0.000002908837
      17        0.000011491769     0.000005673729     0.000003046544
      18       -0.002888373087    -0.003699238725    -0.002709853774
      19        0.000000491617     0.000000960724     0.000001854663
      20       -0.000004100785    -0.000000100779    -0.000000910760
      21       -0.000003221743    -0.000002756178    -0.000000304333
      22       -0.000003839122    -0.000003354996     0.000001566947

  **** Optimization is complete! (in 7 steps) ****
    Final optimized geometry and variables:
    Molecular point group: c1

    Geometry (in Angstrom), charge = 0, multiplicity = 1:

    H            1.500926773721    -3.958455498801     1.274282017431
    C            1.813670929618    -2.994723242831     0.885438309070
    C            0.615644077452    -2.067840671024     0.683944692394
    H            2.524262444569    -2.570360573142     1.589089337800
    H            2.339167668749    -3.170791849990    -0.048953703201
    C            1.012399192026    -0.700144701201     0.137551705024
    H            0.089868155068    -1.925730287267     1.622992985164
    H           -0.090871085930    -2.536523625836     0.000797872054
    N           -0.144854353886     0.160841568229    -0.009157535949
    H            1.700355945537    -0.223343583544     0.830612266537
    H            1.559705555310    -0.826699115898    -0.802804133113
    C            0.172656791990     1.476352552013    -0.540248902356
    H           -0.815300960680    -0.292488349925    -0.598722902593
    C           -1.037911720937     2.438145335076    -0.554883462824
    H            0.928359941241     1.881775717313     0.124109122666
    H            0.614875769577     1.415066859163    -1.537591284466
    C           -2.414197141870     1.765142205728    -0.565899672101
    H           -0.977300503233     3.049023790979    -1.451350004922
    H           -0.985658057385     3.104757840646     0.299223608458
    H           -2.543896430427     1.129325339168    -1.438670906608
    H           -3.194740791496     2.518871408407    -0.600655763586
    H           -2.569124657117     1.159865505350     0.318324282065

  Mulliken Charges: (a.u.)
   Center  Symbol    Alpha    Beta     Spin     Total
       1     H     0.41773  0.41773  0.00000  0.16454
       2     C     3.24324  3.24324  0.00000 -0.48649
       3     C     3.15600  3.15600  0.00000 -0.31199
       4     H     0.42067  0.42067  0.00000  0.15866
       5     H     0.42161  0.42161  0.00000  0.15678
       6     C     3.04557  3.04557  0.00000 -0.09113
       7     H     0.41317  0.41317  0.00000  0.17365
       8     H     0.42665  0.42665  0.00000  0.14670
       9     N     3.85990  3.85990  0.00000 -0.71980
      10     H     0.42195  0.42195  0.00000  0.15610
      11     H     0.43655  0.43655  0.00000  0.12690
      12     C     3.05430  3.05430  0.00000 -0.10860
      13     H     0.33254  0.33254  0.00000  0.33492
      14     C     3.15536  3.15536  0.00000 -0.31073
      15     H     0.41917  0.41917  0.00000  0.16166
      16     H     0.43324  0.43324  0.00000  0.13352
      17     C     3.24674  3.24674  0.00000 -0.49347
      18     H     0.42257  0.42257  0.00000  0.15485
      19     H     0.41769  0.41769  0.00000  0.16463
      20     H     0.42797  0.42797  0.00000  0.14407
      21     H     0.41956  0.41956  0.00000  0.16089
      22     H     0.40782  0.40782  0.00000  0.18435

   Total alpha = 29.00000, Total beta = 29.00000, Total charge =  0.00000
