  ==> Input File <==

--------------------------------------------------------------------------
set {
	reference rhf
	basis 6-31G*
}

set_num_threads( 4 )
memory 2 gb

molecule MOL {
0 1

O	 -1.487788	 1.240889	 -0.102860
C	 -1.083277	 0.139568	 0.115197
C	 0.323299	 -0.082943	 0.642902
C	 -1.933017	 -1.084621	 -0.143902
C	 1.355627	 -0.005344	 -0.493127
H	 0.396251	 -1.044647	 1.143147
H	 0.528637	 0.693580	 1.371677
C	 2.689510	 -0.644078	 -0.110996
H	 0.962158	 -0.495583	 -1.380889
H	 1.505482	 1.037294	 -0.753106
H	 3.402179	 -0.571310	 -0.926164
H	 2.567943	 -1.696086	 0.130508
H	 3.123796	 -0.152789	 0.754496
H	 -1.393885	 -1.806447	 -0.750509
H	 -2.850323	 -0.799888	 -0.640100
H	 -2.169004	 -1.571158	 0.798858

	symmetry c1
}
set optking {
	frozen_dihedral = ("
		9 5 3 2
	")
}

ee = optimize('scf')
oeprop('DIPOLE', 'QUADRUPOLE', 'MULLIKEN_CHARGES')
f=open( 'psi4out.xyz', 'w' )
f.write( "16  " )
f.write( str(ee) + "\n" )
f.write( MOL.save_string_xyz() )
f.close()
--------------------------------------------------------------------------

    Molecular point group: c1
  Charge       = 0
  Multiplicity = 1
  Basis Set: 6-31G*
  Basis Set:
  @DF-RHF Final Energy:  -270.02893861303664
    Total Energy =                       -270.0289386130365301
    Molecular point group: c1
  Basis Set: 6-31G*
  Basis Set:
  Basis Set: 6-31G*
  Basis Set:
  @DF-RHF Final Energy:  -270.02904864463835
    Total Energy =                       -270.0290486446383511
  Basis Set: 6-31G*
  Basis Set:
  Basis Set: 6-31G*
  Basis Set:
  @DF-RHF Final Energy:  -270.02770037007417
    Total Energy =                       -270.0277003700742853
  Basis Set: 6-31G*
  Basis Set:
  Basis Set: 6-31G*
  Basis Set:
  @DF-RHF Final Energy:  -270.02913569407821
    Total Energy =                       -270.0291356940782066
  Basis Set: 6-31G*
  Basis Set:
  @DF-RHF Final Energy:  -270.02915681045181
    Total Energy =                       -270.0291568104516955
  Basis Set: 6-31G*
  Basis Set:
  @DF-RHF Final Energy:  -270.02916346208735
    Total Energy =                       -270.0291634620872401
  Basis Set: 6-31G*
  Basis Set:
  Basis Set: 6-31G*
  Basis Set:
  @DF-RHF Final Energy:  -270.02916655195605
    Total Energy =                       -270.0291665519561661
  Basis Set: 6-31G*
  Basis Set:
  Basis Set: 6-31G*
  Basis Set:
  @DF-RHF Final Energy:  -270.02916781608474
    Total Energy =                       -270.0291678160848505
  Basis Set: 6-31G*
  Basis Set:
  Charge       = 0
  Multiplicity = 1
  Basis Set: 6-31G*
  Basis Set:

    Orbital Energies (a.u.)
    -----------------------

    Doubly Occupied:

       1A    -20.547840     2A    -11.324811     3A    -11.234323
       4A    -11.230063     5A    -11.228580     6A    -11.220709
       7A     -1.393364     8A     -1.083044     9A     -1.012958
      10A     -0.950287    11A     -0.830440    12A     -0.735715
      13A     -0.656828    14A     -0.650441    15A     -0.612407
      16A     -0.604977    17A     -0.578591    18A     -0.560211
      19A     -0.534368    20A     -0.520889    21A     -0.504737
      22A     -0.483069    23A     -0.472158    24A     -0.397958

  @DF-RHF Final Energy:  -270.02916786067527

   => Energetics <=

    Nuclear Repulsion Energy =            237.1407578651586050
    One-Electron Energy =                -835.6023153857493071
    Two-Electron Energy =                 328.4323896599153727
    DFT Exchange-Correlation Energy =       0.0000000000000000
    Empirical Dispersion Energy =           0.0000000000000000
    PCM Polarization Energy =               0.0000000000000000
    EFP Energy =                            0.0000000000000000
    Total Energy =                       -270.0291678606753862
    Molecular point group: c1
  Basis Set: 6-31G*
  Basis Set:

  -Total Gradient:
     Atom            X                  Y                   Z
    ------   -----------------  -----------------  -----------------
       1        0.000005114895    -0.000015208791     0.000001337050
       2       -0.000280356839    -0.002419579344    -0.000279954666
       3        0.000051329325     0.004015887135     0.000111537631
       4       -0.000009543278    -0.000007954784     0.000011134952
       5        0.001571644943    -0.004520436953     0.001290929750
       6       -0.000003173949     0.000002410270    -0.000007887661
       7        0.000005989055     0.000002242568    -0.000003145556
       8        0.000001799979    -0.000000825680     0.000006712136
       9       -0.001342860480     0.002943684952    -0.001123821272
      10       -0.000003123700     0.000000796260     0.000005196932
      11       -0.000001008920     0.000000397171    -0.000000593652
      12        0.000000738262    -0.000000502268     0.000000263344
      13        0.000002264393    -0.000001462904    -0.000000010275
      14        0.000000159676     0.000002277543    -0.000002828022
      15       -0.000001184737    -0.000001112230    -0.000004073603
      16        0.000002211371    -0.000000612949    -0.000004797090

  **** Optimization is complete! (in 9 steps) ****
    Final optimized geometry and variables:
    Molecular point group: c1

    Geometry (in Angstrom), charge = 0, multiplicity = 1:

    O           -1.505845161279     1.331936140404     0.009397934957
    C           -1.064842384195     0.232630890104     0.154721072962
    C            0.347906823219     0.011349186639     0.662212781354
    C           -1.880021280517    -0.998473493322    -0.177608609407
    C            1.359766013210     0.027825963492    -0.499236580166
    H            0.403494210402    -0.942624967242     1.180529738465
    H            0.585695614882     0.794877955061     1.371753680735
    C            2.710233974046    -0.571902916967    -0.116997216704
    H            0.948184391706    -0.490567382387    -1.362203266038
    H            1.490742343484     1.057071797351    -0.818532554764
    H            3.412910800102    -0.504758839761    -0.941192152621
    H            2.613279472909    -1.619289832027     0.153467787724
    H            3.142795652767    -0.049295966184     0.731065615423
    H           -1.309796502236    -1.695019955499    -0.784409575615
    H           -2.784333121851    -0.712552363574    -0.696493013455
    H           -2.143389768046    -1.514778626247     0.741915776599

  Mulliken Charges: (a.u.)
   Center  Symbol    Alpha    Beta     Spin     Total
       1     O     4.26120  4.26120  0.00000 -0.52240
       2     C     2.73844  2.73844  0.00000  0.52312
       3     C     3.19940  3.19940  0.00000 -0.39881
       4     C     3.28968  3.28968  0.00000 -0.57936
       5     C     3.16138  3.16138  0.00000 -0.32275
       6     H     0.41740  0.41740  0.00000  0.16520
       7     H     0.39998  0.39998  0.00000  0.20004
       8     C     3.23996  3.23996  0.00000 -0.47992
       9     H     0.41856  0.41856  0.00000  0.16288
      10     H     0.40702  0.40702  0.00000  0.18595
      11     H     0.41530  0.41530  0.00000  0.16940
      12     H     0.42061  0.42061  0.00000  0.15878
      13     H     0.41780  0.41780  0.00000  0.16440
      14     H     0.41028  0.41028  0.00000  0.17944
      15     H     0.39681  0.39681  0.00000  0.20639
      16     H     0.40618  0.40618  0.00000  0.18764

   Total alpha = 24.00000, Total beta = 24.00000, Total charge = -0.00000
