  ==> Input File <==

--------------------------------------------------------------------------
set {
	reference rhf
	basis 6-31G*
}

set_num_threads( 4 )
memory 2 gb

molecule MOL {
0 1

H	 3.729471	 -0.928294	 -0.070608
O	 2.826016	 -1.159218	 0.122261
C	 2.077727	 -0.067559	 -0.035091
C	 0.624473	 -0.343591	 0.253101
O	 2.542965	 0.974826	 -0.363729
C	 -0.265902	 0.883932	 0.072916
H	 0.324016	 -1.163849	 -0.390541
H	 0.565024	 -0.726111	 1.268924
C	 -1.728698	 0.646073	 0.462102
H	 -0.209144	 1.219470	 -0.958188
H	 0.135059	 1.692851	 0.673903
C	 -2.482460	 -0.343073	 -0.431425
H	 -2.245265	 1.602650	 0.432430
H	 -1.779332	 0.308348	 1.496285
C	 -3.202080	 0.344389	 -1.591606
H	 -1.781223	 -1.076057	 -0.825182
H	 -3.209985	 -0.899058	 0.154211
H	 -3.729800	 -0.375792	 -2.208990
H	 -2.500462	 0.875487	 -2.228392
H	 -3.929556	 1.065365	 -1.229377

	symmetry c1
}
set optking {
	frozen_dihedral = ("
		16 12 9 6
	")
}

ee = optimize('scf')
oeprop('DIPOLE', 'QUADRUPOLE', 'MULLIKEN_CHARGES')
f=open( 'psi4out.xyz', 'w' )
f.write( "20  " )
f.write( str(ee) + "\n" )
f.write( MOL.save_string_xyz() )
f.close()
--------------------------------------------------------------------------

    Molecular point group: c1
  Charge       = 0
  Multiplicity = 1
  Basis Set: 6-31G*
  Basis Set:
  @DF-RHF Final Energy:  -383.94458998282522
    Total Energy =                       -383.9445899828256188
    Molecular point group: c1
  Basis Set: 6-31G*
  Basis Set:
  Basis Set: 6-31G*
  Basis Set:
  @DF-RHF Final Energy:  -383.94491086748457
    Total Energy =                       -383.9449108674847935
  Basis Set: 6-31G*
  Basis Set:
  Basis Set: 6-31G*
  Basis Set:
  @DF-RHF Final Energy:  -383.94519372981893
    Total Energy =                       -383.9451937298191524
  Basis Set: 6-31G*
  Basis Set:
  Basis Set: 6-31G*
  Basis Set:
  @DF-RHF Final Energy:  -383.94519539039032
    Total Energy =                       -383.9451953903903814
  Basis Set: 6-31G*
  Basis Set:
  Basis Set: 6-31G*
  Basis Set:
  @DF-RHF Final Energy:  -383.94520003403426
    Total Energy =                       -383.9452000340343716
  Basis Set: 6-31G*
  Basis Set:
  Basis Set: 6-31G*
  Basis Set:
  @DF-RHF Final Energy:  -383.94520582102820
    Total Energy =                       -383.9452058210283667
  Basis Set: 6-31G*
  Basis Set:
  Basis Set: 6-31G*
  Basis Set:
  @DF-RHF Final Energy:  -383.94521209763087
    Total Energy =                       -383.9452120976311562
  Basis Set: 6-31G*
  Basis Set:
  Charge       = 0
  Multiplicity = 1
  Basis Set: 6-31G*
  Basis Set:

    Orbital Energies (a.u.)
    -----------------------

    Doubly Occupied:

       1A    -20.612686     2A    -20.551781     3A    -11.381367
       4A    -11.240438     5A    -11.223307     6A    -11.220561
       7A    -11.219986     8A    -11.211391     9A     -1.474758
      10A     -1.365808    11A     -1.095765    12A     -1.039368
      13A     -0.959008    14A     -0.873059    15A     -0.815557
      16A     -0.773381    17A     -0.699698    18A     -0.690342
      19A     -0.666601    20A     -0.627329    21A     -0.614118
      22A     -0.586402    23A     -0.576164    24A     -0.565899
      25A     -0.522392    26A     -0.511848    27A     -0.509032
      28A     -0.479451    29A     -0.468584    30A     -0.461415
      31A     -0.458059    32A     -0.443758

  @DF-RHF Final Energy:  -383.94521238677225

   => Energetics <=

    Nuclear Repulsion Energy =            378.4871989071489224
    One-Electron Energy =               -1272.9862035013952664
    Two-Electron Energy =                 510.5537922074740891
    DFT Exchange-Correlation Energy =       0.0000000000000000
    Empirical Dispersion Energy =           0.0000000000000000
    PCM Polarization Energy =               0.0000000000000000
    EFP Energy =                            0.0000000000000000
    Total Energy =                       -383.9452123867722548
    Molecular point group: c1
  Basis Set: 6-31G*
  Basis Set:

  -Total Gradient:
     Atom            X                  Y                   Z
    ------   -----------------  -----------------  -----------------
       1       -0.000000429847     0.000001745812     0.000000996667
       2       -0.000006879830    -0.000005499976    -0.000010383886
       3       -0.000002904394     0.000019604247     0.000009209056
       4       -0.000014304788    -0.000012877654    -0.000037601436
       5        0.000005695443     0.000001825623     0.000001723910
       6        0.000659134514    -0.001775887167     0.001268139263
       7        0.000002151686    -0.000004184972     0.000012138134
       8       -0.000003583467     0.000009671288     0.000011750780
       9       -0.000825806670     0.002984502820    -0.002317568102
      10        0.000000725138    -0.000008135216    -0.000009013405
      11       -0.000011846744    -0.000000732163     0.000002103443
      12       -0.000302701530    -0.003149681378     0.003416019045
      13        0.000010646460     0.000014803930     0.000011233551
      14        0.000014417068    -0.000003019926    -0.000006331480
      15        0.000005050241    -0.000005905095    -0.000005765044
      16        0.000466373377     0.001930102530    -0.002350953676
      17        0.000005752375     0.000003703989     0.000006051815
      18       -0.000004551664    -0.000000734184    -0.000002454838
      19       -0.000001882774    -0.000000598259    -0.000001782535
      20        0.000004945400     0.000001295753     0.000002488737

  **** Optimization is complete! (in 8 steps) ****
    Final optimized geometry and variables:
    Molecular point group: c1

    Geometry (in Angstrom), charge = 0, multiplicity = 1:

    H            3.647782646417    -1.012442919926     0.142495838348
    O            2.759515151608    -1.227472002591     0.409900084068
    C            1.983716945257    -0.175046505722     0.151423570477
    C            0.552045276221    -0.429107069791     0.547254928102
    O            2.412104139986     0.821587792511    -0.332587844696
    C           -0.367128219175     0.758853226048     0.272695145514
    H            0.231539224608    -1.325001508723     0.025080428660
    H            0.550984150266    -0.686869891290     1.603036264486
    C           -1.823841073995     0.498887463455     0.678353604732
    H           -0.309985221477     1.022952284761    -0.778724106195
    H            0.010783155564     1.618177889243     0.816320781367
    C           -2.594398151134    -0.446860755237    -0.262506303937
    H           -2.348890575994     1.448630107141     0.732250061924
    H           -1.833243283962     0.097340161725     1.689509632439
    C           -3.317373340085     0.297056599916    -1.388401032344
    H           -1.912180995803    -1.160631527964    -0.716280378379
    H           -3.319083518190    -1.024041166216     0.303645062822
    H           -3.815534407302    -0.395381055687    -2.060084580755
    H           -2.624946913527     0.888806726811    -1.980373616787
    H           -4.069515335460     0.971680474389    -0.989825631693

  Mulliken Charges: (a.u.)
   Center  Symbol    Alpha    Beta     Spin     Total
       1     H     0.26783  0.26783  0.00000  0.46433
       2     O     4.35147  4.35147  0.00000 -0.70293
       3     C     2.62267  2.62267  0.00000  0.75465
       4     C     3.21160  3.21160  0.00000 -0.42319
       5     O     4.27922  4.27922  0.00000 -0.55845
       6     C     3.15579  3.15579  0.00000 -0.31157
       7     H     0.39747  0.39747  0.00000  0.20505
       8     H     0.39868  0.39868  0.00000  0.20263
       9     C     3.15996  3.15996  0.00000 -0.31993
      10     H     0.41050  0.41050  0.00000  0.17900
      11     H     0.40939  0.40939  0.00000  0.18123
      12     C     3.15573  3.15573  0.00000 -0.31146
      13     H     0.41602  0.41602  0.00000  0.16797
      14     H     0.42183  0.42183  0.00000  0.15635
      15     C     3.24029  3.24029  0.00000 -0.48058
      16     H     0.42306  0.42306  0.00000  0.15388
      17     H     0.41842  0.41842  0.00000  0.16316
      18     H     0.41920  0.41920  0.00000  0.16160
      19     H     0.42002  0.42002  0.00000  0.15996
      20     H     0.42085  0.42085  0.00000  0.15831

   Total alpha = 32.00000, Total beta = 32.00000, Total charge =  0.00000
