  ==> Input File <==

--------------------------------------------------------------------------
set {
	reference rhf
	basis 6-31G*
}

set_num_threads( 4 )
memory 2 gb

molecule MOL {
0 1

O	 -1.265641	 0.496836	 -1.008720
C	 -1.083277	 0.139568	 0.115197
C	 0.323299	 -0.082943	 0.642902
C	 -2.233651	 -0.132975	 1.058695
C	 1.355627	 -0.005344	 -0.493127
H	 0.396251	 -1.044647	 1.143147
H	 0.528637	 0.693580	 1.371677
C	 2.786168	 -0.195604	 0.007473
H	 1.132807	 -0.760304	 -1.243899
H	 1.259610	 0.958506	 -0.981915
H	 3.495561	 -0.130713	 -0.811210
H	 2.912696	 -1.165395	 0.480041
H	 3.049284	 0.565503	 0.735850
H	 -2.134044	 -1.113830	 1.514404
H	 -3.172140	 -0.068950	 0.525896
H	 -2.225702	 0.596733	 1.864094

	symmetry c1
}
set optking {
	frozen_dihedral = ("
		4 2 3 5
	")
}

ee = optimize('scf')
oeprop('DIPOLE', 'QUADRUPOLE', 'MULLIKEN_CHARGES')
f=open( 'psi4out.xyz', 'w' )
f.write( "16  " )
f.write( str(ee) + "\n" )
f.write( MOL.save_string_xyz() )
f.close()
--------------------------------------------------------------------------

    Molecular point group: c1
  Charge       = 0
  Multiplicity = 1
  Basis Set: 6-31G*
  Basis Set:
  @DF-RHF Final Energy:  -270.03113821269972
    Total Energy =                       -270.0311382126997160
    Molecular point group: c1
  Basis Set: 6-31G*
  Basis Set:
  Basis Set: 6-31G*
  Basis Set:
  @DF-RHF Final Energy:  -270.03098913159931
    Total Energy =                       -270.0309891315996538
  Basis Set: 6-31G*
  Basis Set:
  Basis Set: 6-31G*
  Basis Set:
  @DF-RHF Final Energy:  -270.03118398286665
    Total Energy =                       -270.0311839828664233
  Basis Set: 6-31G*
  Basis Set:
  Basis Set: 6-31G*
  Basis Set:
  @DF-RHF Final Energy:  -270.03215817939758
    Total Energy =                       -270.0321581793979249
  Basis Set: 6-31G*
  Basis Set:
  @DF-RHF Final Energy:  -270.03225441270615
    Total Energy =                       -270.0322544127062656
  @DF-RHF Final Energy:  -270.03228612435919
    Total Energy =                       -270.0322861243591319
  @DF-RHF Final Energy:  -270.03229737417172
    Total Energy =                       -270.0322973741718329
  @DF-RHF Final Energy:  -270.03230655641323
    Total Energy =                       -270.0323065564133458
  @DF-RHF Final Energy:  -270.03231473711304
    Total Energy =                       -270.0323147371129835
  @DF-RHF Final Energy:  -270.03233238558096
    Total Energy =                       -270.0323323855810145
  @DF-RHF Final Energy:  -270.03234595405274
    Total Energy =                       -270.0323459540529143
  Basis Set: 6-31G*
  Basis Set:
  @DF-RHF Final Energy:  -270.03234868019013
    Total Energy =                       -270.0323486801900117
  Basis Set: 6-31G*
  Basis Set:
  Basis Set: 6-31G*
  Basis Set:
  @DF-RHF Final Energy:  -270.03235039362852
    Total Energy =                       -270.0323503936285761
  Basis Set: 6-31G*
  Basis Set:
  Basis Set: 6-31G*
  Basis Set:
  @DF-RHF Final Energy:  -270.03235273752205
    Total Energy =                       -270.0323527375219328
  Basis Set: 6-31G*
  Basis Set:
  Charge       = 0
  Multiplicity = 1
  Basis Set: 6-31G*
  Basis Set:

    Orbital Energies (a.u.)
    -----------------------

    Doubly Occupied:

       1A    -20.550665     2A    -11.326817     3A    -11.232546
       4A    -11.228828     5A    -11.219906     6A    -11.213756
       7A     -1.396130     8A     -1.077275     9A     -1.015766
      10A     -0.946957    11A     -0.824420    12A     -0.732098
      13A     -0.654796    14A     -0.650195    15A     -0.624877
      16A     -0.598472    17A     -0.567043    18A     -0.559591
      19A     -0.546737    20A     -0.500326    21A     -0.490852
      22A     -0.483418    23A     -0.476334    24A     -0.401301

  @DF-RHF Final Energy:  -270.03235274937492

   => Energetics <=

    Nuclear Repulsion Energy =            236.7822877716971277
    One-Electron Energy =                -834.9910660804781628
    Two-Electron Energy =                 328.1764255594060842
    DFT Exchange-Correlation Energy =       0.0000000000000000
    Empirical Dispersion Energy =           0.0000000000000000
    PCM Polarization Energy =               0.0000000000000000
    EFP Energy =                            0.0000000000000000
    Total Energy =                       -270.0323527493749225
    Molecular point group: c1
  Basis Set: 6-31G*
  Basis Set:

  -Total Gradient:
     Atom            X                  Y                   Z
    ------   -----------------  -----------------  -----------------
       1        0.000001635916    -0.000000325375    -0.000000265768
       2       -0.000002267086     0.000344396448     0.000115641138
       3        0.000037438170     0.000310231717     0.000007107057
       4       -0.000007529502    -0.000329445081    -0.000092336629
       5       -0.000026612023    -0.000326721104    -0.000037549293
       6       -0.000001725149    -0.000000462951     0.000002208062
       7        0.000002472563    -0.000001400522    -0.000001797895
       8       -0.000002302127    -0.000001038807     0.000004465508
       9       -0.000000993856     0.000001382513    -0.000000614614
      10       -0.000001986566     0.000002909384     0.000000048027
      11       -0.000003602030    -0.000004435178    -0.000000909091
      12       -0.000003017678     0.000003110650     0.000003450138
      13        0.000006135127     0.000003905461    -0.000001457247
      14        0.000000905396    -0.000000173295     0.000000109421
      15        0.000001775387    -0.000001086986     0.000000175178
      16       -0.000000326539    -0.000000846875     0.000001726011

  **** Optimization is complete! (in 15 steps) ****
    Final optimized geometry and variables:
    Molecular point group: c1

    Geometry (in Angstrom), charge = 0, multiplicity = 1:

    O           -1.320327886237     0.404823486311    -1.084840728095
    C           -1.080098272467     0.092119292878     0.040897788703
    C            0.340942774996    -0.077356702231     0.547168811814
    C           -2.186965825344    -0.163997481859     1.042404222280
    C            1.400166632717    -0.044648554107    -0.551034366570
    H            0.396913752697    -1.007454373784     1.110352711612
    H            0.521348387401     0.713151958455     1.275494677231
    C            2.815217764084    -0.203962821543     0.003023693117
    H            1.194025636795    -0.832629440447    -1.268331095554
    H            1.317872271216     0.888319704360    -1.096803433236
    H            3.549335741246    -0.180309137684    -0.795843185266
    H            2.931465990182    -1.147380103689     0.529521211708
    H            3.059728872996     0.594017069374     0.698848194687
    H           -2.226271648535    -1.223999337840     1.278417639834
    H           -3.136456705983     0.141617298958     0.625285973963
    H           -2.004435155253     0.366911203335     1.971599354243

  Mulliken Charges: (a.u.)
   Center  Symbol    Alpha    Beta     Spin     Total
       1     O     4.26131  4.26131  0.00000 -0.52262
       2     C     2.73563  2.73563  0.00000  0.52874
       3     C     3.20916  3.20916  0.00000 -0.41832
       4     C     3.28697  3.28697  0.00000 -0.57394
       5     C     3.14842  3.14842  0.00000 -0.29683
       6     H     0.41198  0.41198  0.00000  0.17604
       7     H     0.40816  0.40816  0.00000  0.18369
       8     C     3.24202  3.24202  0.00000 -0.48404
       9     H     0.41384  0.41384  0.00000  0.17232
      10     H     0.40862  0.40862  0.00000  0.18276
      11     H     0.41563  0.41563  0.00000  0.16874
      12     H     0.42264  0.42264  0.00000  0.15473
      13     H     0.42214  0.42214  0.00000  0.15572
      14     H     0.40655  0.40655  0.00000  0.18690
      15     H     0.39658  0.39658  0.00000  0.20684
      16     H     0.41036  0.41036  0.00000  0.17928

   Total alpha = 24.00000, Total beta = 24.00000, Total charge = -0.00000
