  ==> Input File <==

--------------------------------------------------------------------------
set {
	reference rhf
	basis cc-pvtz
}

set_num_threads( 4 )
memory 2 gb

molecule MOL {
0 1

H	 -1.752232	 -2.214755	 -0.011938
C	 -1.343852	 -1.221619	 -0.018179
N	 -0.058800	 -1.097635	 -0.261688
C	 -2.148159	 -0.124236	 0.219734
C	 0.449026	 0.119242	 -0.273393
H	 -3.196988	 -0.237571	 0.417076
N	 -1.655094	 1.094230	 0.209506
C	 -0.370318	 1.215445	 -0.035100
C	 1.924033	 0.265863	 -0.538106
H	 0.033214	 2.210441	 -0.046812
C	 2.731743	 0.499092	 0.739650
H	 2.271535	 -0.638323	 -1.023342
H	 2.085415	 1.084287	 -1.229735
H	 3.789195	 0.565257	 0.513038
H	 2.583488	 -0.314278	 1.437810
H	 2.434174	 1.420950	 1.226658

	symmetry c1
}
set optking {
	frozen_dihedral = ("
		12 9 5 3
	")
}

ee = optimize('scf')
oeprop('DIPOLE', 'QUADRUPOLE', 'MULLIKEN_CHARGES')
f=open( 'psi4out.xyz', 'w' )
f.write( "16  " )
f.write( str(ee) + "\n" )
f.write( MOL.save_string_xyz() )
f.close()
--------------------------------------------------------------------------

    Molecular point group: c1
  Charge       = 0
  Multiplicity = 1
  Basis Set: CC-PVTZ
  Basis Set:
  @DF-RHF Final Energy:  -340.87159520079337
    Total Energy =                       -340.8715952007932515
    Molecular point group: c1
  Basis Set: CC-PVTZ
  Basis Set:
  Basis Set: CC-PVTZ
  Basis Set:
  @DF-RHF Final Energy:  -340.87165364596734
    Total Energy =                       -340.8716536459676263
  Basis Set: CC-PVTZ
  Basis Set:
  Basis Set: CC-PVTZ
  Basis Set:
  @DF-RHF Final Energy:  -340.87167600335022
    Total Energy =                       -340.8716760033501600
  Basis Set: CC-PVTZ
  Basis Set:
  Basis Set: CC-PVTZ
  Basis Set:
  @DF-RHF Final Energy:  -340.87168749515871
    Total Energy =                       -340.8716874951585964
  Basis Set: CC-PVTZ
  Basis Set:
  Basis Set: CC-PVTZ
  Basis Set:
  @DF-RHF Final Energy:  -340.87169021449864
    Total Energy =                       -340.8716902144985852
  Basis Set: CC-PVTZ
  Basis Set:
  Charge       = 0
  Multiplicity = 1
  Basis Set: CC-PVTZ
  Basis Set:

    Orbital Energies (a.u.)
    -----------------------

    Doubly Occupied:

       1A    -15.580599     2A    -15.575915     3A    -11.278758
       4A    -11.271198     5A    -11.269282     6A    -11.267042
       7A    -11.231411     8A    -11.220470     9A     -1.315821
      10A     -1.223869    11A     -1.086776    12A     -1.016176
      13A     -0.905280    14A     -0.897080    15A     -0.831005
      16A     -0.718058    17A     -0.713725    18A     -0.658916
      19A     -0.612161    20A     -0.607108    21A     -0.585958
      22A     -0.564338    23A     -0.524065    24A     -0.509889
      25A     -0.504849    26A     -0.485791    27A     -0.433839
      28A     -0.397787    29A     -0.346451

  @DF-RHF Final Energy:  -340.87169047082529

   => Energetics <=

    Nuclear Repulsion Energy =            350.4313913417725530
    One-Electron Energy =               -1155.3389291324501755
    Two-Electron Energy =                 464.0358473198523939
    DFT Exchange-Correlation Energy =       0.0000000000000000
    Empirical Dispersion Energy =           0.0000000000000000
    PCM Polarization Energy =               0.0000000000000000
    EFP Energy =                            0.0000000000000000
    Total Energy =                       -340.8716904708252855
    Molecular point group: c1
  Basis Set: CC-PVTZ
  Basis Set:

  -Total Gradient:
     Atom            X                  Y                   Z
    ------   -----------------  -----------------  -----------------
       1       -0.000004940702     0.000000835768     0.000002969876
       2       -0.000023235768    -0.000013608990     0.000018254849
       3       -0.000173900761     0.000081682633    -0.000961734525
       4        0.000001429349    -0.000014478233     0.000010807634
       5        0.000302363761    -0.000204024702     0.001475127907
       6        0.000000937778     0.000000466546     0.000001682730
       7        0.000008335816    -0.000002302173    -0.000024810897
       8        0.000005832472     0.000019343064     0.000032490882
       9       -0.000383322746     0.000631879112    -0.001603080041
      10        0.000004917835    -0.000011793168     0.000021365243
      11        0.000031137186    -0.000021551044     0.000032185393
      12        0.000224008981    -0.000468778705     0.001011061607
      13        0.000004617197    -0.000018129887    -0.000004211283
      14        0.000008857265     0.000002352133     0.000006135810
      15        0.000003133405     0.000011911410    -0.000018977288
      16       -0.000010171069     0.000006196236     0.000000732106

  **** Optimization is complete! (in 6 steps) ****
    Final optimized geometry and variables:
    Molecular point group: c1

    Geometry (in Angstrom), charge = 0, multiplicity = 1:

    H           -1.751039040148    -2.312930386693    -0.018836832857
    C           -1.342099971839    -1.320378542135    -0.028131411534
    N           -0.052570946343    -1.200516128887    -0.276565061524
    C           -2.140728691089    -0.224118636495     0.206239454409
    C            0.456752087094     0.011185845863    -0.290064291180
    H           -3.189408105502    -0.332301426064     0.405783643157
    N           -1.643976981479     0.997669822677     0.188220991530
    C           -0.363528235316     1.113646060235    -0.057220337353
    C            1.931732131657     0.167040423622    -0.553303419363
    H            0.043257639957     2.107773247402    -0.078211822643
    C            2.739763993195     0.398363682896     0.726575905833
    H            2.276614870289    -0.736241360575    -1.036659653707
    H            2.092416500312     0.992459440011    -1.238065848710
    H            3.794658939033     0.490143476324     0.497226430055
    H            2.614591172516    -0.429879517274     1.413498398129
    H            2.428078916335     1.304106827158     1.233979949914

  Mulliken Charges: (a.u.)
   Center  Symbol    Alpha    Beta     Spin     Total
       1     H     0.41363  0.41363  0.00000  0.17275
       2     C     3.04251  3.04251  0.00000 -0.08501
       3     N     3.59517  3.59517  0.00000 -0.19034
       4     C     3.04818  3.04818  0.00000 -0.09636
       5     C     2.93874  2.93874  0.00000  0.12253
       6     H     0.41348  0.41348  0.00000  0.17304
       7     N     3.58698  3.58698  0.00000 -0.17397
       8     C     3.07886  3.07886  0.00000 -0.15772
       9     C     3.08638  3.08638  0.00000 -0.17277
      10     H     0.41468  0.41468  0.00000  0.17064
      11     C     3.14431  3.14431  0.00000 -0.28862
      12     H     0.44110  0.44110  0.00000  0.11779
      13     H     0.44637  0.44637  0.00000  0.10727
      14     H     0.44796  0.44796  0.00000  0.10408
      15     H     0.44810  0.44810  0.00000  0.10380
      16     H     0.45355  0.45355  0.00000  0.09290

   Total alpha = 29.00000, Total beta = 29.00000, Total charge = -0.00000
