  ==> Input File <==

--------------------------------------------------------------------------
set {
	reference rhf
	basis cc-pvtz
}

set_num_threads( 4 )
memory 2 gb

molecule MOL {
0 1

H	 -1.121841	 0.713673	 0.470816
N	 -0.712187	 0.000026	 -0.093397
C	 0.734067	 -0.000020	 0.038424
H	 -0.984473	 0.178414	 -1.036521
H	 1.140372	 -0.872115	 -0.458226
H	 1.140363	 0.872301	 -0.457869
H	 1.095085	 -0.000244	 1.065614

	symmetry c1
}
set optking {
	frozen_dihedral = ("
		1 2 3 7
	")
}

ee = optimize('scf')
oeprop('DIPOLE', 'QUADRUPOLE', 'MULLIKEN_CHARGES')
f=open( 'psi4out.xyz', 'w' )
f.write( "7  " )
f.write( str(ee) + "\n" )
f.write( MOL.save_string_xyz() )
f.close()
--------------------------------------------------------------------------

    Molecular point group: c1
  Charge       = 0
  Multiplicity = 1
  Basis Set: CC-PVTZ
  Basis Set:
  @DF-RHF Final Energy:   -95.25167006539792
    Total Energy =                        -95.2516700653979171
    Molecular point group: c1
  Basis Set: CC-PVTZ
  Basis Set:
  Basis Set: CC-PVTZ
  Basis Set:
  @DF-RHF Final Energy:   -95.25329516303657
    Total Energy =                        -95.2532951630365119
  Basis Set: CC-PVTZ
  Basis Set:
  Basis Set: CC-PVTZ
  Basis Set:
  @DF-RHF Final Energy:   -95.25348551281104
    Total Energy =                        -95.2534855128110536
  Basis Set: CC-PVTZ
  Basis Set:
  Basis Set: CC-PVTZ
  Basis Set:
  @DF-RHF Final Energy:   -95.25348732216689
    Total Energy =                        -95.2534873221668477
  Basis Set: CC-PVTZ
  Basis Set:
  Charge       = 0
  Multiplicity = 1
  Basis Set: CC-PVTZ
  Basis Set:

    Orbital Energies (a.u.)
    -----------------------

    Doubly Occupied:

       1A    -15.527851     2A    -11.235505     3A     -1.171578
       4A     -0.897079     5A     -0.666861     6A     -0.602495
       7A     -0.559098     8A     -0.518136     9A     -0.385180

  @DF-RHF Final Energy:   -95.25348750285431

   => Energetics <=

    Nuclear Repulsion Energy =             42.3892732941128330
    One-Electron Energy =                -212.1579531042146129
    Two-Electron Energy =                  74.5151923072474460
    DFT Exchange-Correlation Energy =       0.0000000000000000
    Empirical Dispersion Energy =           0.0000000000000000
    PCM Polarization Energy =               0.0000000000000000
    EFP Energy =                            0.0000000000000000
    Total Energy =                        -95.2534875028543411
    Molecular point group: c1
  Basis Set: CC-PVTZ
  Basis Set:

  -Total Gradient:
     Atom            X                  Y                   Z
    ------   -----------------  -----------------  -----------------
       1       -0.000080914778    -0.000942450226     0.001116854774
       2        0.000054597359     0.001503317233    -0.001389747579
       3        0.000070703200    -0.001909070431     0.000248205592
       4        0.000005539841     0.000009395566     0.000002795144
       5       -0.000012833483     0.000017194997     0.000005975144
       6       -0.000016503857    -0.000011068338    -0.000005768122
       7       -0.000020588281     0.001332681199     0.000021685048

  **** Optimization is complete! (in 5 steps) ****
    Final optimized geometry and variables:
    Molecular point group: c1

    Geometry (in Angstrom), charge = 0, multiplicity = 1:

    H           -1.122853932647     0.666993904598     0.541536697290
    N           -0.715926831823    -0.034328464211    -0.038652736252
    C            0.732772034797    -0.019148981164     0.057045010117
    H           -1.022329119229     0.128504089506    -0.973455125430
    H            1.140738489721    -0.909509880243    -0.404797451262
    H            1.204738070579     0.846255388800    -0.405755207322
    H            1.022053576892    -0.027268158555     1.100300580312

  Mulliken Charges: (a.u.)
   Center  Symbol    Alpha    Beta     Spin     Total
       1     H     0.42757  0.42757  0.00000  0.14486
       2     N     3.68826  3.68826  0.00000 -0.37652
       3     C     3.07064  3.07064  0.00000 -0.14128
       4     H     0.42823  0.42823  0.00000  0.14355
       5     H     0.45635  0.45635  0.00000  0.08729
       6     H     0.47234  0.47234  0.00000  0.05532
       7     H     0.45661  0.45661  0.00000  0.08678

   Total alpha =  9.00000, Total beta =  9.00000, Total charge = -0.00000
