  ==> Input File <==

--------------------------------------------------------------------------
set {
	reference rhf
	basis 6-31G*
}

set_num_threads( 4 )
memory 2 gb

molecule MOL {
0 1

H	 2.332609	 0.878551	 -1.051851
C	 2.357710	 0.000000	 -0.417167
C	 1.175432	 0.000000	 0.532082
H	 3.291263	 0.000000	 0.136880
H	 2.332609	 -0.878551	 -1.051851
O	 0.000000	 0.000000	 -0.221444
H	 1.206604	 0.877321	 1.177902
H	 1.206604	 -0.877321	 1.177902
C	 -1.175432	 0.000000	 0.532082
C	 -1.595426	 1.436988	 0.771927
H	 -1.012643	 -0.511685	 1.480462
H	 -1.959463	 -0.541899	 0.003510
H	 -0.820037	 1.972811	 1.307624
H	 -2.509144	 1.474378	 1.356913
H	 -1.768184	 1.942554	 -0.171399

	symmetry c1
}
set optking {
	frozen_dihedral = ("
		11 9 6 3
	")
}

ee = optimize('scf')
oeprop('DIPOLE', 'QUADRUPOLE', 'MULLIKEN_CHARGES')
f=open( 'psi4out.xyz', 'w' )
f.write( "15  " )
f.write( str(ee) + "\n" )
f.write( MOL.save_string_xyz() )
f.close()
--------------------------------------------------------------------------

    Molecular point group: c1
  Charge       = 0
  Multiplicity = 1
  Basis Set: 6-31G*
  Basis Set:
  @DF-RHF Final Energy:  -232.14052793408945
    Total Energy =                       -232.1405279340895618
    Molecular point group: c1
  Basis Set: 6-31G*
  Basis Set:
  Basis Set: 6-31G*
  Basis Set:
  @DF-RHF Final Energy:  -232.14144745865775
    Total Energy =                       -232.1414474586578649
  Basis Set: 6-31G*
  Basis Set:
  Basis Set: 6-31G*
  Basis Set:
  @DF-RHF Final Energy:  -232.14181522896075
    Total Energy =                       -232.1418152289608656
  Basis Set: 6-31G*
  Basis Set:
  Basis Set: 6-31G*
  Basis Set:
  @DF-RHF Final Energy:  -232.14181937727699
    Total Energy =                       -232.1418193772772156
  Basis Set: 6-31G*
  Basis Set:
  Charge       = 0
  Multiplicity = 1
  Basis Set: 6-31G*
  Basis Set:

    Orbital Energies (a.u.)
    -----------------------

    Doubly Occupied:

       1A    -20.549232     2A    -11.268475     3A    -11.268069
       4A    -11.209748     5A    -11.208547     6A     -1.374066
       7A     -1.041042     8A     -0.984984     9A     -0.858386
      10A     -0.816929    11A     -0.671124    12A     -0.651315
      13A     -0.640370    14A     -0.571705    15A     -0.552251
      16A     -0.542403    17A     -0.523148    18A     -0.501364
      19A     -0.487488    20A     -0.459112    21A     -0.406033

  @DF-RHF Final Energy:  -232.14181951762345

   => Energetics <=

    Nuclear Repulsion Energy =            192.2744512295500385
    One-Electron Energy =                -695.6609573640956796
    Two-Electron Energy =                 271.2446866169224222
    DFT Exchange-Correlation Energy =       0.0000000000000000
    Empirical Dispersion Energy =           0.0000000000000000
    PCM Polarization Energy =               0.0000000000000000
    EFP Energy =                            0.0000000000000000
    Total Energy =                       -232.1418195176232189
    Molecular point group: c1
  Basis Set: 6-31G*
  Basis Set:

  -Total Gradient:
     Atom            X                  Y                   Z
    ------   -----------------  -----------------  -----------------
       1       -0.000001743829    -0.000000286427     0.000002237405
       2        0.000012426890    -0.000002249475     0.000006521532
       3       -0.000014238605    -0.000921760395    -0.000006483954
       4        0.000003135933    -0.000001126084    -0.000004444089
       5        0.000000237740    -0.000000260317     0.000000209061
       6        0.000146865067     0.001609692816     0.000111000997
       7        0.000001289523     0.000000316204     0.000006387347
       8       -0.000005617530    -0.000000861977    -0.000003333388
       9       -0.000433900580    -0.001686225374    -0.000627782659
      10       -0.000003349536    -0.000014116197     0.000018632684
      11        0.000317441701     0.001012567555     0.000482907217
      12       -0.000019093838     0.000003703145     0.000011832479
      13       -0.000001933259     0.000000219975    -0.000001778567
      14       -0.000006033541     0.000010417457     0.000003767054
      15        0.000004513860    -0.000010030906     0.000000326881

  **** Optimization is complete! (in 5 steps) ****
    Final optimized geometry and variables:
    Molecular point group: c1

    Geometry (in Angstrom), charge = 0, multiplicity = 1:

    H            2.190898457708     0.578715703430    -1.298635170481
    C            2.213919143337    -0.311997771199    -0.681012466289
    C            1.049612715231    -0.312469241667     0.290125131794
    H            3.157707216246    -0.337206732853    -0.144877350556
    H            2.162138852039    -1.177790724782    -1.331429795810
    O           -0.138627369304    -0.295331990142    -0.446394371916
    H            1.109147349129     0.553617730513     0.947289756754
    H            1.082689502771    -1.199931676078     0.920790890391
    C           -1.322353793383    -0.261566526444     0.302247302915
    C           -1.811003765298     1.162536130387     0.528662948705
    H           -1.180587577055    -0.764139451567     1.256895630900
    H           -2.062216445996    -0.822043339627    -0.256775594889
    H           -1.092568244774     1.741791413961     1.099654890298
    H           -2.750376907532     1.161229124823     1.074258904016
    H           -1.966678340059     1.660621970324    -0.421847029021

  Mulliken Charges: (a.u.)
   Center  Symbol    Alpha    Beta     Spin     Total
       1     H     0.41363  0.41363  0.00000  0.17274
       2     C     3.24395  3.24395  0.00000 -0.48790
       3     C     2.98915  2.98915  0.00000  0.02170
       4     H     0.42282  0.42282  0.00000  0.15437
       5     H     0.41309  0.41309  0.00000  0.17383
       6     O     4.31086  4.31086  0.00000 -0.62171
       7     H     0.43263  0.43263  0.00000  0.13474
       8     H     0.43113  0.43113  0.00000  0.13774
       9     C     2.99247  2.99247  0.00000  0.01506
      10     C     3.24622  3.24622  0.00000 -0.49243
      11     H     0.43149  0.43149  0.00000  0.13702
      12     H     0.41656  0.41656  0.00000  0.16688
      13     H     0.41982  0.41982  0.00000  0.16037
      14     H     0.42316  0.42316  0.00000  0.15367
      15     H     0.41303  0.41303  0.00000  0.17393

   Total alpha = 21.00000, Total beta = 21.00000, Total charge = -0.00000
