  ==> Input File <==

--------------------------------------------------------------------------
set {
	reference rhf
	basis 6-31G*
}

set_num_threads( 4 )
memory 2 gb

molecule MOL {
0 1

H	 -4.236494	 0.538104	 0.039757
O	 -3.517110	 -0.026191	 -0.205115
C	 -2.306886	 0.532354	 0.237577
C	 -1.177863	 -0.397191	 -0.171080
H	 -2.156308	 1.517575	 -0.201710
H	 -2.315015	 0.655684	 1.319734
C	 0.198102	 0.111031	 0.262842
H	 -1.208843	 -0.518759	 -1.250427
H	 -1.368741	 -1.376554	 0.258909
C	 1.331804	 -0.827780	 -0.158768
H	 0.361943	 1.100838	 -0.156218
H	 0.217265	 0.229072	 1.345532
C	 2.723619	 -0.410569	 0.329459
H	 1.342964	 -0.912588	 -1.244120
H	 1.116806	 -1.824343	 0.220779
C	 3.088040	 -0.921779	 1.724520
H	 2.775428	 0.675432	 0.332079
H	 3.471474	 -0.747444	 -0.385658
H	 2.350167	 -0.610451	 2.459134
H	 3.151123	 -2.004424	 1.757356
H	 4.050924	 -0.530767	 2.038712

	symmetry c1
}
set optking {
	frozen_dihedral = ("
		16 13 10 14
	")
}

ee = optimize('scf')
oeprop('DIPOLE', 'QUADRUPOLE', 'MULLIKEN_CHARGES')
f=open( 'psi4out.xyz', 'w' )
f.write( "21  " )
f.write( str(ee) + "\n" )
f.write( MOL.save_string_xyz() )
f.close()
--------------------------------------------------------------------------

    Molecular point group: c1
  Charge       = 0
  Multiplicity = 1
  Basis Set: 6-31G*
  Basis Set:
  @DF-RHF Final Energy:  -310.21113727985784
    Total Energy =                       -310.2111372798576667
    Molecular point group: c1
  Basis Set: 6-31G*
  Basis Set:
  Basis Set: 6-31G*
  Basis Set:
  @DF-RHF Final Energy:  -310.21145969291234
    Total Energy =                       -310.2114596929125128
  Basis Set: 6-31G*
  Basis Set:
  Basis Set: 6-31G*
  Basis Set:
  @DF-RHF Final Energy:  -310.21149929736816
    Total Energy =                       -310.2114992973683343
  Basis Set: 6-31G*
  Basis Set:
  Basis Set: 6-31G*
  Basis Set:
  @DF-RHF Final Energy:  -310.21149992353594
    Total Energy =                       -310.2114999235357118
  Basis Set: 6-31G*
  Basis Set:
  Basis Set: 6-31G*
  Basis Set:
  @DF-RHF Final Energy:  -310.21150722108092
    Total Energy =                       -310.2115072210806943
  Basis Set: 6-31G*
  Basis Set:
  Charge       = 0
  Multiplicity = 1
  Basis Set: 6-31G*
  Basis Set:

    Orbital Energies (a.u.)
    -----------------------

    Doubly Occupied:

       1A    -20.551884     2A    -11.267140     3A    -11.216262
       4A    -11.214823     5A    -11.213237     6A    -11.210669
       7A    -11.208367     8A     -1.358713     9A     -1.085818
      10A     -1.033381    11A     -0.955129    12A     -0.872156
      13A     -0.805715    14A     -0.784402    15A     -0.692652
      16A     -0.661178    17A     -0.617575    18A     -0.611334
      19A     -0.586170    20A     -0.566247    21A     -0.537880
      22A     -0.521285    23A     -0.508371    24A     -0.487268
      25A     -0.479510    26A     -0.462629    27A     -0.454422
      28A     -0.442652    29A     -0.434035

  @DF-RHF Final Energy:  -310.21150742572740

   => Energetics <=

    Nuclear Repulsion Energy =            311.5437539864410610
    One-Electron Energy =               -1037.8287130867379346
    Two-Electron Energy =                 416.0734516745694691
    DFT Exchange-Correlation Energy =       0.0000000000000000
    Empirical Dispersion Energy =           0.0000000000000000
    PCM Polarization Energy =               0.0000000000000000
    EFP Energy =                            0.0000000000000000
    Total Energy =                       -310.2115074257274046
    Molecular point group: c1
  Basis Set: 6-31G*
  Basis Set:

  -Total Gradient:
     Atom            X                  Y                   Z
    ------   -----------------  -----------------  -----------------
       1        0.000000197873     0.000000328993     0.000000469957
       2        0.000005297152     0.000000654845    -0.000002017716
       3        0.000007156700     0.000004978147    -0.000001760413
       4        0.000008251219    -0.000004059139    -0.000023213606
       5       -0.000005190906     0.000001806458    -0.000000488655
       6        0.000001680005     0.000000887593    -0.000000214365
       7        0.000017723839    -0.000020776920     0.000001207582
       8       -0.000007823611    -0.000003475328    -0.000003883699
       9        0.000005755014     0.000003487368    -0.000002086194
      10       -0.000720563480     0.002940564244    -0.000660949797
      11        0.000000278702    -0.000022664192     0.000008088573
      12        0.000005270318    -0.000005479953     0.000018260350
      13       -0.001109083318     0.001998955269     0.001393054851
      14        0.000870435512    -0.003008613617     0.000235556828
      15       -0.000057504230     0.000014407925     0.000010985899
      16        0.000948214937    -0.001933793782    -0.000983930772
      17        0.000040527006     0.000039601284     0.000013108243
      18       -0.000014215967    -0.000021657702     0.000026251101
      19       -0.000022827076     0.000010067923    -0.000044368865
      20        0.000031436356    -0.000004400066     0.000029403770
      21       -0.000005016043     0.000009180650    -0.000013473069

  **** Optimization is complete! (in 6 steps) ****
    Final optimized geometry and variables:
    Molecular point group: c1

    Geometry (in Angstrom), charge = 0, multiplicity = 1:

    H           -4.209123143163     0.812998091624    -0.257546888615
    O           -3.491840190324     0.247210181480    -0.505150496267
    C           -2.280513455264     0.794012681665    -0.051006718621
    C           -1.154843533896    -0.137042478699    -0.465444883863
    H           -2.122637147451     1.783275686381    -0.478456878079
    H           -2.292642708875     0.905121690195     1.032444113014
    C            0.221700296726     0.358296452368    -0.020311495169
    H           -1.181868279797    -0.246539815760    -1.546192288414
    H           -1.352596791359    -1.120084897154    -0.047100824974
    C            1.357765921232    -0.570240002706    -0.454076878890
    H            0.400838051805     1.351529295232    -0.428762639069
    H            0.234464828571     0.467258458382     1.062747693273
    C            2.747494903776    -0.126654773941     0.031244725499
    H            1.360582986655    -0.661939042959    -1.537521362739
    H            1.157849297180    -1.574140472490    -0.082926256816
    C            3.100139537955    -0.637202565186     1.429432703230
    H            2.816289049232     0.958529332395     0.005849219548
    H            3.500066271468    -0.491425962596    -0.662977351832
    H            2.379572152968    -0.307419802583     2.172462362377
    H            3.120734642894    -1.722855391421     1.449687800385
    H            4.077500542092    -0.281449782097     1.741124204027

  Mulliken Charges: (a.u.)
   Center  Symbol    Alpha    Beta     Spin     Total
       1     H     0.28117  0.28117  0.00000  0.43766
       2     O     4.37178  4.37178  0.00000 -0.74356
       3     C     2.98976  2.98976  0.00000  0.02047
       4     C     3.15937  3.15937  0.00000 -0.31874
       5     H     0.43282  0.43282  0.00000  0.13437
       6     H     0.43292  0.43292  0.00000  0.13416
       7     C     3.16080  3.16080  0.00000 -0.32160
       8     H     0.41477  0.41477  0.00000  0.17046
       9     H     0.41461  0.41461  0.00000  0.17079
      10     C     3.15369  3.15369  0.00000 -0.30737
      11     H     0.42335  0.42335  0.00000  0.15330
      12     H     0.42283  0.42283  0.00000  0.15434
      13     C     3.15426  3.15426  0.00000 -0.30852
      14     H     0.42009  0.42009  0.00000  0.15982
      15     H     0.42225  0.42225  0.00000  0.15550
      16     C     3.23984  3.23984  0.00000 -0.47969
      17     H     0.42253  0.42253  0.00000  0.15494
      18     H     0.42036  0.42036  0.00000  0.15927
      19     H     0.42200  0.42200  0.00000  0.15599
      20     H     0.42104  0.42104  0.00000  0.15793
      21     H     0.41976  0.41976  0.00000  0.16048

   Total alpha = 29.00000, Total beta = 29.00000, Total charge =  0.00000
