  ==> Input File <==

--------------------------------------------------------------------------
set {
	reference rhf
	basis 6-31G*
}

set_num_threads( 1 )
memory 2 gb

molecule MOL {
0 1

H	 1.149142	 -1.038396	 0.806801
O	 1.320291	 -0.617641	 -0.024779
C	 0.709265	 0.639550	 -0.033818
C	 -0.793441	 0.596080	 0.058728
H	 1.003275	 1.111979	 -0.964179
H	 1.098560	 1.264816	 0.769000
C	 -1.530462	 -0.493172	 -0.025500
H	 -1.268471	 1.554324	 0.202247
H	 -1.092586	 -1.461565	 -0.186463
H	 -2.602122	 -0.450675	 0.050101

	symmetry c1
}
set optking {
	frozen_dihedral = ("
		5 3 2 1,
		3 4 7 9
	")
}

ee = energy('scf')
oeprop('DIPOLE', 'QUADRUPOLE', 'MULLIKEN_CHARGES')
f=open( 'psi4out.xyz', 'w' )
f.write( "10  " )
f.write( str(ee) + "\n" )
f.write( MOL.save_string_xyz() )
f.close()
--------------------------------------------------------------------------

    Molecular point group: c1

    Geometry (in Angstrom), charge = 0, multiplicity = 1:

       Center              X                  Y                   Z               Mass
    ------------   -----------------  -----------------  -----------------  -----------------
           H          1.148854521600    -1.038715360007     0.801987396482     1.007825032070
           O          1.320003521600    -0.617960360007    -0.029592603518    15.994914619560
           C          0.708977521600     0.639230639993    -0.038631603518    12.000000000000
           C         -0.793728478400     0.595760639993     0.053914396482    12.000000000000
           H          1.002987521600     1.111659639993    -0.968992603518     1.007825032070
           H          1.098272521600     1.264496639993     0.764186396482     1.007825032070
           C         -1.530749478400    -0.493491360007    -0.030313603518    12.000000000000
           H         -1.268758478400     1.554004639993     0.197433396482     1.007825032070
           H         -1.092873478400    -1.461884360007    -0.191276603518     1.007825032070
           H         -2.602409478400    -0.450994360007     0.045287396482     1.007825032070

  Charge       = 0
  Multiplicity = 1
  Basis Set: 6-31G*
  Basis Set:

    Orbital Energies (a.u.)
    -----------------------

    Doubly Occupied:

       1A    -20.560583     2A    -11.278342     3A    -11.231054
       4A    -11.219403     5A     -1.369196     6A     -1.057905
       7A     -0.928436     8A     -0.768894     9A     -0.687592
      10A     -0.661523    11A     -0.615742    12A     -0.570848
      13A     -0.538248    14A     -0.491837    15A     -0.447829
      16A     -0.364767

  @DF-RHF Final Energy:  -191.91724658458304

   => Energetics <=

    Nuclear Repulsion Energy =            119.3792266712367649
    One-Electron Energy =                -497.0085592720044474
    Two-Electron Energy =                 185.7120860161848270
    DFT Exchange-Correlation Energy =       0.0000000000000000
    Empirical Dispersion Energy =           0.0000000000000000
    PCM Polarization Energy =               0.0000000000000000
    EFP Energy =                            0.0000000000000000
    Total Energy =                       -191.9172465845828413

  Mulliken Charges: (a.u.)
   Center  Symbol    Alpha    Beta     Spin     Total
       1     H     0.28089  0.28089  0.00000  0.43822
       2     O     4.36681  4.36681  0.00000 -0.73363
       3     C     3.00028  3.00028  0.00000 -0.00056
       4     C     3.09404  3.09404  0.00000 -0.18807
       5     H     0.40811  0.40811  0.00000  0.18377
       6     H     0.42576  0.42576  0.00000  0.14848
       7     C     3.19701  3.19701  0.00000 -0.39403
       8     H     0.41021  0.41021  0.00000  0.17959
       9     H     0.40585  0.40585  0.00000  0.18829
      10     H     0.41103  0.41103  0.00000  0.17794

   Total alpha = 16.00000, Total beta = 16.00000, Total charge = -0.00000
