  ==> Input File <==

--------------------------------------------------------------------------
set {
	reference rhf
	basis cc-pvtz
}

set_num_threads( 4 )
memory 2 gb

molecule MOL {
0 1

H	 -3.237401	 0.509461	 -0.845692
C	 -2.200708	 0.295704	 -0.673383
C	 -1.780479	 -1.004069	 -0.428781
C	 -1.265864	 1.304479	 -0.691087
H	 -2.495750	 -1.804450	 -0.411124
C	 -0.453231	 -1.282407	 -0.207506
H	 -1.571897	 2.316340	 -0.878625
C	 0.078706	 1.040901	 -0.469573
H	 -0.118182	 -2.283085	 -0.017619
C	 0.487099	 -0.257689	 -0.226758
H	 0.781279	 1.848019	 -0.489935
O	 1.760432	 -0.625184	 0.000000
C	 2.773565	 0.334879	 0.000000
H	 2.728295	 0.960928	 -0.884150
H	 3.706387	 -0.206610	 0.000000
H	 2.728295	 0.960928	 0.884150

	symmetry c1
}
set optking {
	frozen_dihedral = ("
		10 12 13 14
	")
}

ee = optimize('scf')
oeprop('DIPOLE', 'QUADRUPOLE', 'MULLIKEN_CHARGES')
f=open( 'psi4out.xyz', 'w' )
f.write( "16  " )
f.write( str(ee) + "\n" )
f.write( MOL.save_string_xyz() )
f.close()
--------------------------------------------------------------------------

    Molecular point group: c1
  Charge       = 0
  Multiplicity = 1
  Basis Set: CC-PVTZ
  Basis Set:
  @DF-RHF Final Energy:  -344.70319759987473
    Total Energy =                       -344.7031975998745565
    Molecular point group: c1
  Basis Set: CC-PVTZ
  Basis Set:
  Basis Set: CC-PVTZ
  Basis Set:
  @DF-RHF Final Energy:  -344.70339441683262
    Total Energy =                       -344.7033944168329072
  Basis Set: CC-PVTZ
  Basis Set:
  Basis Set: CC-PVTZ
  Basis Set:
  @DF-RHF Final Energy:  -344.70346202656339
    Total Energy =                       -344.7034620265632725
  Basis Set: CC-PVTZ
  Basis Set:
  Charge       = 0
  Multiplicity = 1
  Basis Set: CC-PVTZ
  Basis Set:

    Orbital Energies (a.u.)
    -----------------------

    Doubly Occupied:

       1A    -20.580224     2A    -11.293735     3A    -11.278542
       4A    -11.231256     5A    -11.230005     6A    -11.221878
       7A    -11.218014     8A    -11.216944     9A     -1.419703
      10A     -1.150954    11A     -1.025711    12A     -1.016661
      13A     -0.944296    14A     -0.834595    15A     -0.808366
      16A     -0.726306    17A     -0.667912    18A     -0.666420
      19A     -0.660345    20A     -0.619468    21A     -0.590304
      22A     -0.579928    23A     -0.527935    24A     -0.523634
      25A     -0.512531    26A     -0.479509    27A     -0.466659
      28A     -0.339761    29A     -0.310110

  @DF-RHF Final Energy:  -344.70346519374465

   => Energetics <=

    Nuclear Repulsion Energy =            348.8779463375688579
    One-Electron Energy =               -1158.8794131335496331
    Two-Electron Energy =                 465.2980016022361269
    DFT Exchange-Correlation Energy =       0.0000000000000000
    Empirical Dispersion Energy =           0.0000000000000000
    PCM Polarization Energy =               0.0000000000000000
    EFP Energy =                            0.0000000000000000
    Total Energy =                       -344.7034651937447052
    Molecular point group: c1
  Basis Set: CC-PVTZ
  Basis Set:

  -Total Gradient:
     Atom            X                  Y                   Z
    ------   -----------------  -----------------  -----------------
       1        0.000009045292     0.000005675949    -0.000019094281
       2        0.000003271235     0.000115891657     0.000015799502
       3        0.000073401152    -0.000056317733     0.000008159806
       4       -0.000126819014    -0.000038019673     0.000018337967
       5       -0.000000848756     0.000001636592     0.000009276887
       6       -0.000117203518    -0.000041348023    -0.000025992691
       7       -0.000005295605     0.000007083957    -0.000012740843
       8        0.000059651796    -0.000036356930    -0.000006969328
       9        0.000013217880     0.000009167866     0.000008998476
      10        0.000300074253    -0.000319433846    -0.001281690924
      11       -0.000051741019     0.000000090693    -0.000000605642
      12       -0.000512154000     0.000826206909     0.001966584706
      13        0.001292557064    -0.001678998194    -0.001295535223
      14       -0.000943032557     0.001086816197     0.000606668935
      15       -0.000074518316     0.000007320278     0.000006934181
      16        0.000080394116     0.000110584303     0.000001868471

  **** Optimization is complete! (in 4 steps) ****
    Final optimized geometry and variables:
    Molecular point group: c1

    Geometry (in Angstrom), charge = 0, multiplicity = 1:

    H           -3.250569985354     0.521160523692    -0.585299897073
    C           -2.217653960519     0.312455479749    -0.386139620719
    C           -1.794365359977    -0.987985916673    -0.150699876682
    C           -1.291076025343     1.328584538071    -0.358814956584
    H           -2.503472711404    -1.793862300445    -0.167231614553
    C           -0.471591733948    -1.260267359096     0.102924931082
    H           -1.600112159218     2.341489006667    -0.535567333278
    C            0.048437617509     1.071243529504    -0.102306499460
    H           -0.133958810210    -2.261466106541     0.285338543070
    C            0.460846198027    -0.228544354852     0.126770637128
    H            0.743638014512     1.884803895961    -0.079906624210
    O            1.728793281179    -0.588140328820     0.393687145994
    C            2.760679206444     0.344768108749     0.272672268940
    H            2.723688023178     0.857634111383    -0.681253777715
    H            3.684403290928    -0.206487792073     0.348862768747
    H            2.722500667120     1.081957208569     1.067899568898

  Mulliken Charges: (a.u.)
   Center  Symbol    Alpha    Beta     Spin     Total
       1     H     0.42441  0.42441  0.00000  0.15119
       2     C     3.10078  3.10078  0.00000 -0.20157
       3     C     3.05812  3.05812  0.00000 -0.11623
       4     C     3.06171  3.06171  0.00000 -0.12343
       5     H     0.42299  0.42299  0.00000  0.15402
       6     C     3.11130  3.11130  0.00000 -0.22261
       7     H     0.42357  0.42357  0.00000  0.15285
       8     C     3.14313  3.14313  0.00000 -0.28627
       9     H     0.42086  0.42086  0.00000  0.15827
      10     C     2.85082  2.85082  0.00000  0.29837
      11     H     0.42268  0.42268  0.00000  0.15465
      12     O     4.15148  4.15148  0.00000 -0.30296
      13     C     3.04446  3.04446  0.00000 -0.08891
      14     H     0.46322  0.46322  0.00000  0.07355
      15     H     0.43906  0.43906  0.00000  0.12189
      16     H     0.46141  0.46141  0.00000  0.07718

   Total alpha = 29.00000, Total beta = 29.00000, Total charge = -0.00000
