  ==> Input File <==

--------------------------------------------------------------------------
set {
	reference rhf
	basis 6-31G*
}

set_num_threads( 4 )
memory 2 gb

molecule MOL {
0 1

H	 -3.334379	 -0.949004	 -0.284539
O	 -2.506864	 -0.600989	 -0.584339
C	 -2.026376	 0.340750	 0.341611
C	 -0.673256	 0.843270	 -0.132153
H	 -2.718907	 1.176269	 0.426733
H	 -1.931112	 -0.108683	 1.329330
C	 0.486613	 -0.083066	 0.235839
H	 -0.715586	 0.970948	 -1.210718
H	 -0.508072	 1.829858	 0.297090
C	 1.840406	 0.433480	 -0.254303
H	 0.300215	 -1.068318	 -0.178947
H	 0.519509	 -0.203625	 1.318070
C	 3.000220	 -0.489290	 0.118523
H	 1.809207	 0.553576	 -1.335192
H	 2.021860	 1.424500	 0.157276
H	 2.864959	 -1.479103	 -0.307933
H	 3.946603	 -0.099227	 -0.243630
H	 3.080049	 -0.602997	 1.196117

	symmetry c1
}
set optking {
	frozen_dihedral = ("
		2 3 4 8
	")
}

ee = optimize('scf')
oeprop('DIPOLE', 'QUADRUPOLE', 'MULLIKEN_CHARGES')
f=open( 'psi4out.xyz', 'w' )
f.write( "18  " )
f.write( str(ee) + "\n" )
f.write( MOL.save_string_xyz() )
f.close()
--------------------------------------------------------------------------

    Molecular point group: c1
  Charge       = 0
  Multiplicity = 1
  Basis Set: 6-31G*
  Basis Set:
  @DF-RHF Final Energy:  -271.17829587888968
    Total Energy =                       -271.1782958788897986
    Molecular point group: c1
  Basis Set: 6-31G*
  Basis Set:
  Basis Set: 6-31G*
  Basis Set:
  @DF-RHF Final Energy:  -271.17852186615931
    Total Energy =                       -271.1785218661597128
  Basis Set: 6-31G*
  Basis Set:
  Basis Set: 6-31G*
  Basis Set:
  @DF-RHF Final Energy:  -271.17856637831255
    Total Energy =                       -271.1785663783124392
  Basis Set: 6-31G*
  Basis Set:
  Basis Set: 6-31G*
  Basis Set:
  @DF-RHF Final Energy:  -271.17856771754902
    Total Energy =                       -271.1785677175488445
  Basis Set: 6-31G*
  Basis Set:
  Basis Set: 6-31G*
  Basis Set:
  @DF-RHF Final Energy:  -271.17856897523046
    Total Energy =                       -271.1785689752304052
  Basis Set: 6-31G*
  Basis Set:
  Charge       = 0
  Multiplicity = 1
  Basis Set: 6-31G*
  Basis Set:

    Orbital Energies (a.u.)
    -----------------------

    Doubly Occupied:

       1A    -20.552738     2A    -11.267726     3A    -11.211626
       4A    -11.211410     5A    -11.208584     6A    -11.205476
       7A     -1.359052     8A     -1.075702     9A     -1.008657
      10A     -0.912663    11A     -0.818497    12A     -0.785685
      13A     -0.705457    14A     -0.635051    15A     -0.631583
      16A     -0.578293    17A     -0.570324    18A     -0.560701
      19A     -0.523603    20A     -0.498539    21A     -0.488957
      22A     -0.468262    23A     -0.460394    24A     -0.451365
      25A     -0.425987

  @DF-RHF Final Energy:  -271.17856928169590

   => Energetics <=

    Nuclear Repulsion Energy =            248.2815227335763382
    One-Electron Energy =                -859.6875215570764794
    Two-Electron Energy =                 340.2274295418042129
    DFT Exchange-Correlation Energy =       0.0000000000000000
    Empirical Dispersion Energy =           0.0000000000000000
    PCM Polarization Energy =               0.0000000000000000
    EFP Energy =                            0.0000000000000000
    Total Energy =                       -271.1785692816958999
    Molecular point group: c1
  Basis Set: 6-31G*
  Basis Set:

  -Total Gradient:
     Atom            X                  Y                   Z
    ------   -----------------  -----------------  -----------------
       1        0.000000847274     0.000001560136    -0.000001800816
       2       -0.001424983714     0.002264646338    -0.001636672106
       3        0.002115187834    -0.003725613148     0.002015300636
       4       -0.002033581682     0.005229824649     0.000090106084
       5       -0.000003675482    -0.000003667698    -0.000004185582
       6        0.000003220093     0.000005155594     0.000001995937
       7       -0.000000277851    -0.000020810132    -0.000015487487
       8        0.001348775730    -0.003774108414    -0.000447722695
       9       -0.000004672513     0.000008307484    -0.000003785174
      10        0.000001197870     0.000006521981     0.000005739360
      11        0.000005549497     0.000001051000     0.000003696966
      12       -0.000008741426     0.000008965840    -0.000005730455
      13       -0.000000450678    -0.000003721034    -0.000004109505
      14        0.000001937505     0.000001729605    -0.000000389354
      15       -0.000003046262     0.000001195653     0.000001242524
      16        0.000000079910    -0.000001535302     0.000003401075
      17        0.000000646564    -0.000001478724    -0.000001851833
      18        0.000001987332     0.000001976174     0.000000252424

  **** Optimization is complete! (in 6 steps) ****
    Final optimized geometry and variables:
    Molecular point group: c1

    Geometry (in Angstrom), charge = 0, multiplicity = 1:

    H           -3.223897091551    -1.068806156412    -0.268118431249
    O           -2.420094766384    -0.662245284710    -0.558995435011
    C           -2.000764036069     0.289431547936     0.387886679825
    C           -0.643595558067     0.825767621454    -0.045627443229
    H           -2.722709862178     1.102521869248     0.438937244860
    H           -1.935913865703    -0.152743137675     1.380630999864
    C            0.512518220810    -0.112554713786     0.310720484707
    H           -0.672017823414     0.947073110338    -1.124426096168
    H           -0.479407985007     1.803922554550     0.399384366162
    C            1.864830589606     0.375236713444    -0.210935738975
    H            0.301870803005    -1.099229684270    -0.093379738628
    H            0.565820016609    -0.225195800684     1.392892459087
    C            3.017767685943    -0.558871853147     0.154866170478
    H            1.815452004236     0.480309546179    -1.292515619782
    H            2.067400144764     1.369389642791     0.183006055672
    H            2.859828930983    -1.553292543338    -0.252834349321
    H            3.962551387028    -0.189024948737    -0.231650136225
    H            3.116892317983    -0.656414818860     1.232429523327

  Mulliken Charges: (a.u.)
   Center  Symbol    Alpha    Beta     Spin     Total
       1     H     0.28097  0.28097  0.00000  0.43807
       2     O     4.37043  4.37043  0.00000 -0.74086
       3     C     2.99781  2.99781  0.00000  0.00437
       4     C     3.16026  3.16026  0.00000 -0.32052
       5     H     0.42932  0.42932  0.00000  0.14136
       6     H     0.43195  0.43195  0.00000  0.13611
       7     C     3.15512  3.15512  0.00000 -0.31025
       8     H     0.41053  0.41053  0.00000  0.17895
       9     H     0.42289  0.42289  0.00000  0.15423
      10     C     3.15174  3.15174  0.00000 -0.30348
      11     H     0.41230  0.41230  0.00000  0.17540
      12     H     0.42739  0.42739  0.00000  0.14522
      13     C     3.23906  3.23906  0.00000 -0.47812
      14     H     0.42167  0.42167  0.00000  0.15666
      15     H     0.42485  0.42485  0.00000  0.15031
      16     H     0.42101  0.42101  0.00000  0.15799
      17     H     0.41998  0.41998  0.00000  0.16004
      18     H     0.42274  0.42274  0.00000  0.15452

   Total alpha = 25.00000, Total beta = 25.00000, Total charge =  0.00000
