                              Psi4 1.0.54 Driver

  ==> Input File <==

--------------------------------------------------------------------------
set {
	reference rhf
	basis cc-pvtz
}

set_num_threads( 4 )
memory 2 gb

molecule MOL {
0 1

H	 -2.810273	 0.405652	 -0.126942
N	 -1.842531	 0.510092	 0.091318
C	 -1.074374	 0.844996	 -1.093552
H	 -1.523740	 -0.355762	 0.471668
C	 0.390772	 0.990448	 -0.751733
H	 -1.169379	 0.111488	 -1.893230
H	 -1.428108	 1.794651	 -1.479659
O	 0.881195	 -0.248324	 -0.336237
H	 0.941421	 1.336859	 -1.625207
H	 0.509968	 1.726250	 0.040301
C	 2.208068	 -0.234417	 0.074171
H	 2.725499	 -1.027054	 -0.446768
H	 2.688377	 0.712084	 -0.164856
H	 2.295137	 -0.403407	 1.144883

	symmetry c1
}
set optking {
	frozen_dihedral = ("
		5 8 11 13
	")
}

ee,wfn = optimize('scf', return_wfn=True)
oeprop( wfn, 'DIPOLE', 'QUADRUPOLE', 'MULLIKEN_CHARGES')
f=open( 'psi4out.xyz', 'w' )
f.write( "14  " )
f.write( str(ee) + "\n" )
f.write( MOL.save_string_xyz() )
f.close()
--------------------------------------------------------------------------

    Molecular point group: c1
  Charge       = 0
  Multiplicity = 1
  Basis Set: CC-PVTZ
  Basis Set:
  @DF-RHF Final Energy:  -248.22247309226972
    Total Energy =                       -248.2224730922697518
    Molecular point group: c1
  Basis Set: CC-PVTZ
  Basis Set:
  Basis Set: CC-PVTZ
  Basis Set:
  @DF-RHF Final Energy:  -248.22273456616901
    Total Energy =                       -248.2227345661689242
  Basis Set: CC-PVTZ
  Basis Set:
  Basis Set: CC-PVTZ
  Basis Set:
  @DF-RHF Final Energy:  -248.22282270670232
    Total Energy =                       -248.2228227067023454
  Basis Set: CC-PVTZ
  Basis Set:
  Charge       = 0
  Multiplicity = 1
  Basis Set: CC-PVTZ
  Basis Set:

    Orbital Energies (a.u.)
    -----------------------

    Doubly Occupied:

       1A    -20.547371     2A    -15.523129     3A    -11.264400
       4A    -11.263245     5A    -11.239383     6A     -1.379945
       7A     -1.175562     8A     -1.000373     9A     -0.907876
      10A     -0.815365    11A     -0.684093    12A     -0.673479
      13A     -0.645105    14A     -0.611214    15A     -0.607690
      16A     -0.540619    17A     -0.535870    18A     -0.497247
      19A     -0.473582    20A     -0.414810    21A     -0.383523

  @DF-RHF Final Energy:  -248.22282323106839

   => Energetics <=

    Nuclear Repulsion Energy =            194.4149583014535096
    One-Electron Energy =                -722.9077998059647143
    Two-Electron Energy =                 280.2700182734428154
    DFT Exchange-Correlation Energy =       0.0000000000000000
    Empirical Dispersion Energy =           0.0000000000000000
    PCM Polarization Energy =               0.0000000000000000
    EFP Energy =                            0.0000000000000000
    Total Energy =                       -248.2228232310684461
    Molecular point group: c1
  Basis Set: CC-PVTZ
  Basis Set:

  -Total Gradient:
     Atom            X                  Y                   Z
    ------   -----------------  -----------------  -----------------
       1        0.000007335044     0.000006123109    -0.000014261705
       2        0.000020899093     0.000004336526    -0.000013336547
       3       -0.000033059097     0.000030748363    -0.000019851045
       4        0.000008124957     0.000005196654    -0.000004215917
       5        0.000250744540    -0.000217586062    -0.001021415205
       6       -0.000001429154     0.000004722477     0.000016477106
       7       -0.000040294399     0.000011219554    -0.000012475207
       8       -0.000407416493     0.000481673819     0.001914330994
       9       -0.000000194498    -0.000028587086     0.000020259667
      10        0.000010247666    -0.000001952137    -0.000010603690
      11        0.000586022657    -0.000828443189    -0.002094288481
      12        0.000018871051    -0.000006012149     0.000000218163
      13       -0.000405951570     0.000530451020     0.001240466389
      14       -0.000013899794     0.000008109101    -0.000001304523

  **** Optimization is complete! (in 4 steps) ****
    Final optimized geometry and variables:
    Molecular point group: c1

    Geometry (in Angstrom), charge = 0, multiplicity = 1:

    H           -2.926071494503     0.047592446030     0.276082812344
    N           -1.957781093752     0.157066077050     0.489309838645
    C           -1.196587138665     0.489080923163    -0.700758976013
    H           -1.633622750851    -0.705855589495     0.871717249653
    C            0.269317607264     0.644053277633    -0.366587120146
    H           -1.291078791921    -0.249837160090    -1.495503764931
    H           -1.556785693133     1.434683236097    -1.091176348843
    O            0.763802968014    -0.592525509795     0.054983607582
    H            0.812806669409     0.985555902440    -1.245605683582
    H            0.385584912005     1.387125583032     0.418419948851
    C            2.096005335957    -0.612759172842     0.466839880078
    H            2.612635024631    -1.425930638644    -0.027513815672
    H            2.605299608527     0.316246499287     0.232680465354
    H            2.155284399253    -0.764117851961     1.539751734380

  Mulliken Charges: (a.u.)
   Center  Symbol    Alpha    Beta     Spin     Total
       1     H     0.43035  0.43035  0.00000  0.13931
       2     N     3.69426  3.69426  0.00000 -0.38853
       3     C     3.02427  3.02427  0.00000 -0.04853
       4     H     0.42220  0.42220  0.00000  0.15560
       5     C     2.96738  2.96738  0.00000  0.06525
       6     H     0.46486  0.46486  0.00000  0.07028
       7     H     0.45875  0.45875  0.00000  0.08249
       8     O     4.18442  4.18442  0.00000 -0.36884
       9     H     0.46958  0.46958  0.00000  0.06084
      10     H     0.46926  0.46926  0.00000  0.06148
      11     C     3.02742  3.02742  0.00000 -0.05484
      12     H     0.45616  0.45616  0.00000  0.08769
      13     H     0.47165  0.47165  0.00000  0.05670
      14     H     0.45945  0.45945  0.00000  0.08110

   Total alpha = 21.00000, Total beta = 21.00000, Total charge =  0.00000

*** Psi4 exiting successfully. Buy a developer a beer!
