  ==> Input File <==

--------------------------------------------------------------------------
set {
	reference rhf
	basis cc-pvtz
}

set_num_threads( 4 )
memory 2 gb

molecule MOL {
0 1

H	 -1.835082	 1.385983	 0.000069
C	 -1.300516	 0.441153	 -0.000028
O	 -0.006604	 0.654344	 -0.000106
O	 -1.828920	 -0.612308	 0.000113
C	 0.852093	 -0.482521	 -0.000161
C	 0.372908	 -1.422354	 1.080485
H	 1.866297	 -0.154145	 0.177375
H	 0.818119	 -0.945832	 -0.975943
H	 0.408688	 -0.944097	 2.051032
H	 1.006985	 -2.300476	 1.106977
H	 -0.644776	 -1.739745	 0.891931

	symmetry c1
}
set optking {
	frozen_dihedral = ("
		7 5 3 2
	")
}

ee = optimize('scf')
oeprop('DIPOLE', 'QUADRUPOLE', 'MULLIKEN_CHARGES')
f=open( 'psi4out.xyz', 'w' )
f.write( "11  " )
f.write( str(ee) + "\n" )
f.write( MOL.save_string_xyz() )
f.close()
--------------------------------------------------------------------------

    Molecular point group: c1
  Charge       = 0
  Multiplicity = 1
  Basis Set: CC-PVTZ
  Basis Set:
  @DF-RHF Final Energy:  -266.91257347074225
    Total Energy =                       -266.9125734707424158
    Molecular point group: c1
  Basis Set: CC-PVTZ
  Basis Set:
  Basis Set: CC-PVTZ
  Basis Set:
  @DF-RHF Final Energy:  -266.92479846440142
    Total Energy =                       -266.9247984644014764
  Basis Set: CC-PVTZ
  Basis Set:
  Basis Set: CC-PVTZ
  Basis Set:
  @DF-RHF Final Energy:  -266.92658022148743
    Total Energy =                       -266.9265802214874270
  Basis Set: CC-PVTZ
  Basis Set:
  Basis Set: CC-PVTZ
  Basis Set:
  @DF-RHF Final Energy:  -266.92110372521745
    Total Energy =                       -266.9211037252173924
  Basis Set: CC-PVTZ
  Basis Set:
  @DF-RHF Final Energy:  -266.92688513874549
    Total Energy =                       -266.9268851387454902
  @DF-RHF Final Energy:  -266.92694959042001
    Total Energy =                       -266.9269495904201790
  @DF-RHF Final Energy:  -266.92695341303641
    Total Energy =                       -266.9269534130365855
  @DF-RHF Final Energy:  -266.87514164199189
    Total Energy =                       -266.8751416419919451
  @DF-RHF Final Energy:  -266.91926405822244
    Total Energy =                       -266.9192640582226659
  Basis Set: CC-PVTZ
  Basis Set:
  @DF-RHF Final Energy:  -266.92667711338061
    Total Energy =                       -266.9266771133806060
  Basis Set: CC-PVTZ
  Basis Set:
  Basis Set: CC-PVTZ
  Basis Set:
  @DF-RHF Final Energy:  -266.92694099472828
    Total Energy =                       -266.9269409947282838
  Basis Set: CC-PVTZ
  Basis Set:
  Basis Set: CC-PVTZ
  Basis Set:
  @DF-RHF Final Energy:  -266.92695268387604
    Total Energy =                       -266.9269526838759248
  Basis Set: CC-PVTZ
  Basis Set:
  Charge       = 0
  Multiplicity = 1
  Basis Set: CC-PVTZ
  Basis Set:

    Orbital Energies (a.u.)
    -----------------------

    Doubly Occupied:

       1A    -20.604089     2A    -20.544664     3A    -11.370652
       4A    -11.293222     5A    -11.219026     6A     -1.476331
       7A     -1.377319     8A     -1.049102     9A     -0.916682
      10A     -0.795259    11A     -0.738750    12A     -0.687154
      13A     -0.663058    14A     -0.626792    15A     -0.577279
      16A     -0.543333    17A     -0.531076    18A     -0.504823
      19A     -0.461743    20A     -0.451998

  @DF-RHF Final Energy:  -266.92695365885174

   => Energetics <=

    Nuclear Repulsion Energy =            183.1133523896360202
    One-Electron Energy =                -727.2159089044318989
    Two-Electron Energy =                 277.1756028559443621
    DFT Exchange-Correlation Energy =       0.0000000000000000
    Empirical Dispersion Energy =           0.0000000000000000
    PCM Polarization Energy =               0.0000000000000000
    EFP Energy =                            0.0000000000000000
    Total Energy =                       -266.9269536588515166
    Molecular point group: c1
  Basis Set: CC-PVTZ
  Basis Set:

  -Total Gradient:
     Atom            X                  Y                   Z
    ------   -----------------  -----------------  -----------------
       1       -0.000021956345    -0.000001381296     0.000012095363
       2       -0.000131744119     0.000145317919     0.005397030166
       3        0.000068050051    -0.000356918287    -0.007025127349
       4        0.000017205669     0.000010039499     0.000016079352
       5        0.001034775048     0.000600784850    -0.004160109988
       6        0.000016121166     0.000025388551     0.000070719119
       7       -0.000946904666    -0.000418021696     0.005694100107
       8        0.000010848657     0.000032461828    -0.000025223106
       9       -0.000002760150    -0.000014211174     0.000029892276
      10       -0.000019894619    -0.000004509900    -0.000004991579
      11       -0.000023740693    -0.000018950291    -0.000004464361

  **** Optimization is complete! (in 13 steps) ****
    Final optimized geometry and variables:
    Molecular point group: c1

    Geometry (in Angstrom), charge = 0, multiplicity = 1:

    H           -1.347548822203     1.803910112388    -0.145177611008
    C           -0.914712592878     0.811933754217    -0.234288612954
    O            0.392847416843     0.898437107114    -0.212047373878
    O           -1.556363904409    -0.169261071229    -0.355243150391
    C            1.213175156999    -0.269620071294    -0.167010324060
    C            0.875820282542    -1.239872258236     0.951934866106
    H            2.197564501489     0.128242594988     0.023748528849
    H            1.189444097309    -0.752239646193    -1.133807080552
    H            0.832002030932    -0.720614585569     1.902534964296
    H            1.670595183321    -1.975170752331     1.010916566067
    H           -0.058190671478    -1.750970109694     0.788769250315

  Mulliken Charges: (a.u.)
   Center  Symbol    Alpha    Beta     Spin     Total
       1     H     0.44704  0.44704  0.00000  0.10591
       2     C     2.84089  2.84089  0.00000  0.31822
       3     O     4.14861  4.14861  0.00000 -0.29723
       4     O     4.19740  4.19740  0.00000 -0.39480
       5     C     2.97601  2.97601  0.00000  0.04799
       6     C     3.15540  3.15540  0.00000 -0.31079
       7     H     0.44591  0.44591  0.00000  0.10818
       8     H     0.45243  0.45243  0.00000  0.09514
       9     H     0.45239  0.45239  0.00000  0.09522
      10     H     0.45004  0.45004  0.00000  0.09992
      11     H     0.43388  0.43388  0.00000  0.13224

   Total alpha = 20.00000, Total beta = 20.00000, Total charge = -0.00000
