  ==> Input File <==

--------------------------------------------------------------------------
set {
	reference rhf
	basis cc-pvtz
}

set_num_threads( 4 )
memory 2 gb

molecule MOL {
0 1

H	 -2.292223	 -0.047200	 -0.942308
N	 -1.851927	 0.161443	 -0.071573
C	 -0.561396	 -0.500007	 0.035200
H	 -2.469636	 -0.143373	 0.651516
C	 0.575129	 0.507849	 -0.048832
H	 -0.478089	 -1.200753	 -0.788956
H	 -0.456191	 -1.081816	 0.952176
C	 1.951750	 -0.141983	 0.035101
H	 0.478254	 1.061643	 -0.975981
H	 0.467676	 1.231891	 0.755499
H	 2.101550	 -0.848142	 -0.774949
H	 2.738260	 0.600794	 -0.026526
H	 2.078939	 -0.679792	 0.968824

	symmetry c1
}
set optking {
	frozen_dihedral = ("
		1 2 3 6
	")
}

ee = optimize('scf')
oeprop('DIPOLE', 'QUADRUPOLE', 'MULLIKEN_CHARGES')
f=open( 'psi4out.xyz', 'w' )
f.write( "13  " )
f.write( str(ee) + "\n" )
f.write( MOL.save_string_xyz() )
f.close()
--------------------------------------------------------------------------

    Molecular point group: c1
  Charge       = 0
  Multiplicity = 1
  Basis Set: CC-PVTZ
  Basis Set:
  @DF-RHF Final Energy:  -173.34892441253015
    Total Energy =                       -173.3489244125302093
    Molecular point group: c1
  Basis Set: CC-PVTZ
  Basis Set:
  Basis Set: CC-PVTZ
  Basis Set:
  @DF-RHF Final Energy:  -173.34967366205066
    Total Energy =                       -173.3496736620505771
  Basis Set: CC-PVTZ
  Basis Set:
  Basis Set: CC-PVTZ
  Basis Set:
  @DF-RHF Final Energy:  -173.34984226617556
    Total Energy =                       -173.3498422661753864
  Basis Set: CC-PVTZ
  Basis Set:
  Basis Set: CC-PVTZ
  Basis Set:
  @DF-RHF Final Energy:  -173.34984475030373
    Total Energy =                       -173.3498447503035891
  Basis Set: CC-PVTZ
  Basis Set:
  Charge       = 0
  Multiplicity = 1
  Basis Set: CC-PVTZ
  Basis Set:

    Orbital Energies (a.u.)
    -----------------------

    Doubly Occupied:

       1A    -15.525784     2A    -11.239265     3A    -11.204580
       4A    -11.203961     5A     -1.175503     6A     -1.034130
       7A     -0.899239     8A     -0.794746     9A     -0.676028
      10A     -0.613801    11A     -0.602789    12A     -0.574003
      13A     -0.517592    14A     -0.491594    15A     -0.485720
      16A     -0.463581    17A     -0.381340

  @DF-RHF Final Energy:  -173.34984549670162

   => Energetics <=

    Nuclear Repulsion Energy =            131.5917132789327297
    One-Electron Energy =                -494.1158054576823133
    Two-Electron Energy =                 189.1742466820480217
    DFT Exchange-Correlation Energy =       0.0000000000000000
    Empirical Dispersion Energy =           0.0000000000000000
    PCM Polarization Energy =               0.0000000000000000
    EFP Energy =                            0.0000000000000000
    Total Energy =                       -173.3498454967015618
    Molecular point group: c1
  Basis Set: CC-PVTZ
  Basis Set:

  -Total Gradient:
     Atom            X                  Y                   Z
    ------   -----------------  -----------------  -----------------
       1       -0.000492393901    -0.000927107533     0.000489608032
       2        0.000717919587     0.001392328466    -0.000804179279
       3       -0.000621715834    -0.001185737256     0.000890265225
       4       -0.000018974033    -0.000009312625     0.000014275003
       5       -0.000032160394    -0.000025395784     0.000027819068
       6        0.000410721164     0.000752950012    -0.000620838761
       7        0.000025614144     0.000010793341     0.000004286770
       8        0.000015593366    -0.000001281765    -0.000007879269
       9       -0.000006676697    -0.000017037681     0.000004585162
      10       -0.000000396386     0.000004153505     0.000004030733
      11       -0.000003067043     0.000000717031     0.000004978480
      12        0.000008395181    -0.000000301650    -0.000002246533
      13       -0.000002859154     0.000005231939    -0.000004704632

  **** Optimization is complete! (in 5 steps) ****
    Final optimized geometry and variables:
    Molecular point group: c1

    Geometry (in Angstrom), charge = 0, multiplicity = 1:

    H           -2.325488822618    -0.050242023109    -0.906257806854
    N           -1.860511820171     0.163451744174    -0.051752789007
    C           -0.556469651545    -0.489459042894     0.034860936668
    H           -2.463746544440    -0.119584409850     0.688285436004
    C            0.584040266233     0.518771193230    -0.030237071468
    H           -0.430410502061    -1.213291045978    -0.766462554972
    H           -0.485702461866    -1.046041836432     0.964048089758
    C            1.959201095785    -0.134288157355     0.053438835853
    H            0.497172032333     1.082851757271    -0.953776916935
    H            0.460080144622     1.234069782041     0.776045788614
    H            2.114553982756    -0.834056337640    -0.761664070574
    H            2.748246723059     0.606834068378     0.004486197016
    H            2.079747965834    -0.681664408729     0.983024581410

  Mulliken Charges: (a.u.)
   Center  Symbol    Alpha    Beta     Spin     Total
       1     H     0.42741  0.42741  0.00000  0.14518
       2     N     3.69575  3.69575  0.00000 -0.39150
       3     C     3.03970  3.03970  0.00000 -0.07940
       4     H     0.42608  0.42608  0.00000  0.14784
       5     C     3.06121  3.06121  0.00000 -0.12242
       6     H     0.46037  0.46037  0.00000  0.07925
       7     H     0.45788  0.45788  0.00000  0.08423
       8     C     3.15581  3.15581  0.00000 -0.31162
       9     H     0.45791  0.45791  0.00000  0.08418
      10     H     0.45579  0.45579  0.00000  0.08842
      11     H     0.45735  0.45735  0.00000  0.08530
      12     H     0.44760  0.44760  0.00000  0.10480
      13     H     0.45713  0.45713  0.00000  0.08573

   Total alpha = 17.00000, Total beta = 17.00000, Total charge = -0.00000
