  ==> Input File <==

--------------------------------------------------------------------------
set {
	reference rhf
	basis cc-pvtz
}

set_num_threads( 4 )
memory 2 gb

molecule MOL {
0 1

H	 -0.059860	 -6.139011	 0.272136
C	 0.288257	 -5.113181	 0.247698
C	 -0.881540	 -4.138723	 0.166099
H	 0.877271	 -4.943736	 1.142902
H	 0.949176	 -5.009499	 -0.606383
C	 -0.437181	 -2.684035	 0.128739
H	 -1.542674	 -4.277925	 1.014208
H	 -1.469207	 -4.355657	 -0.722812
N	 -1.569494	 -1.784740	 0.075171
H	 0.128850	 -2.459091	 1.027726
H	 0.247634	 -2.535878	 -0.711596
C	 -1.215959	 -0.382435	 0.027143
H	 -2.145275	 -2.014126	 -0.707886
C	 -2.451944	 0.502410	 -0.038737
H	 -0.653723	 -0.146277	 0.925640
H	 -0.559320	 -0.150999	 -0.816859
C	 -3.752217	 -0.292550	 0.005776
H	 -2.407325	 1.093801	 -0.946480
H	 -2.431979	 1.206234	 0.790023
H	 -3.817783	 -0.982946	 -0.828547
H	 -4.612613	 0.364348	 -0.042306
H	 -3.830160	 -0.871666	 0.919868

	symmetry c1
}
set optking {
	frozen_dihedral = ("
		15 12 14 18
	")
}

ee = optimize('scf')
oeprop('DIPOLE', 'QUADRUPOLE', 'MULLIKEN_CHARGES')
f=open( 'psi4out.xyz', 'w' )
f.write( "22  " )
f.write( str(ee) + "\n" )
f.write( MOL.save_string_xyz() )
f.close()
--------------------------------------------------------------------------

    Molecular point group: c1
  Charge       = 0
  Multiplicity = 1
  Basis Set: CC-PVTZ
  Basis Set:
  @DF-RHF Final Energy:  -290.47703399635810
    Total Energy =                       -290.4770339963585002
    Molecular point group: c1
  Basis Set: CC-PVTZ
  Basis Set:
  Basis Set: CC-PVTZ
  Basis Set:
  @DF-RHF Final Energy:  -290.47751584282594
    Total Energy =                       -290.4775158428262785
  Basis Set: CC-PVTZ
  Basis Set:
  Basis Set: CC-PVTZ
  Basis Set:
  @DF-RHF Final Energy:  -290.48020712656836
    Total Energy =                       -290.4802071265683594
  Basis Set: CC-PVTZ
  Basis Set:
  Basis Set: CC-PVTZ
  Basis Set:
  @DF-RHF Final Energy:  -290.48046528048081
    Total Energy =                       -290.4804652804809848
  Basis Set: CC-PVTZ
  Basis Set:
  Basis Set: CC-PVTZ
  Basis Set:
  @DF-RHF Final Energy:  -290.48048606871731
    Total Energy =                       -290.4804860687173687
  Basis Set: CC-PVTZ
  Basis Set:
  Basis Set: CC-PVTZ
  Basis Set:
  @DF-RHF Final Energy:  -290.48049353266464
    Total Energy =                       -290.4804935326646955
  Basis Set: CC-PVTZ
  Basis Set:
  Charge       = 0
  Multiplicity = 1
  Basis Set: CC-PVTZ
  Basis Set:

    Orbital Energies (a.u.)
    -----------------------

    Doubly Occupied:

       1A    -15.528270     2A    -11.237014     3A    -11.236377
       4A    -11.212163     5A    -11.212092     6A    -11.207763
       7A    -11.202319     8A     -1.207124     9A     -1.056566
      10A     -1.021487    11A     -0.927437    12A     -0.881258
      13A     -0.805464    14A     -0.786615    15A     -0.667367
      16A     -0.628869    17A     -0.622024    18A     -0.601099
      19A     -0.575231    20A     -0.567012    21A     -0.533432
      22A     -0.530020    23A     -0.504800    24A     -0.486291
      25A     -0.485182    26A     -0.471382    27A     -0.458889
      28A     -0.451177    29A     -0.359183

  @DF-RHF Final Energy:  -290.48049423125332

   => Energetics <=

    Nuclear Repulsion Energy =            318.4058765284035530
    One-Electron Energy =               -1022.8449362038342088
    Two-Electron Energy =                 413.9585654441772817
    DFT Exchange-Correlation Energy =       0.0000000000000000
    Empirical Dispersion Energy =           0.0000000000000000
    PCM Polarization Energy =               0.0000000000000000
    EFP Energy =                            0.0000000000000000
    Total Energy =                       -290.4804942312533171
    Molecular point group: c1
  Basis Set: CC-PVTZ
  Basis Set:

  -Total Gradient:
     Atom            X                  Y                   Z
    ------   -----------------  -----------------  -----------------
       1        0.000002561296    -0.000002599971     0.000000322029
       2       -0.000001126613    -0.000005210931     0.000000282969
       3        0.000001730638     0.000001718477     0.000002059498
       4       -0.000000537750     0.000000265590    -0.000000929529
       5       -0.000000791430     0.000000195054     0.000000523174
       6        0.000004250333     0.000008957217     0.000001847659
       7        0.000000559230    -0.000000693725    -0.000000992391
       8        0.000000379245     0.000000408410     0.000000753209
       9        0.000002314726     0.000015352321    -0.000022496107
      10        0.000004535938    -0.000002136292    -0.000000796745
      11       -0.000000005977    -0.000001182525     0.000002571016
      12       -0.000924245836    -0.001144540652     0.001322272811
      13       -0.000015899409    -0.000005085133    -0.000010925877
      14       -0.000906912552    -0.001228561591    -0.001240257149
      15        0.000943579708     0.001159826307    -0.000886978775
      16       -0.000009314007    -0.000016362430    -0.000001426999
      17       -0.000001469382     0.000012438791     0.000012758379
      18        0.000897430347     0.001215712799     0.000836248197
      19       -0.000006083167    -0.000008601586    -0.000005016723
      20        0.000007174172    -0.000005847878    -0.000006746963
      21        0.000001165316     0.000002118088    -0.000005266701
      22        0.000000705173     0.000003829660     0.000002195015

  **** Optimization is complete! (in 7 steps) ****
    Final optimized geometry and variables:
    Molecular point group: c1

    Geometry (in Angstrom), charge = 0, multiplicity = 1:

    H            1.481112371700    -4.157593764904     0.200359829573
    C            1.798829724799    -3.121646118995     0.202476809401
    C            0.606443519252    -2.181928367316     0.061740680466
    H            2.331322148773    -2.942171059991     1.130518615737
    H            2.503029771907    -2.990973994186    -0.612397634369
    C            1.008346899229    -0.714396570601     0.060826355557
    H           -0.096877348561    -2.348979280497     0.869953047767
    H            0.077099164641    -2.408412550230    -0.860795638135
    N           -0.146024204324     0.151262865940    -0.048600171918
    H            1.517111189538    -0.481353076422     0.991382996712
    H            1.733850493625    -0.538117737536    -0.739123095370
    C            0.186679839779     1.560817075178    -0.081371378006
    H           -0.669202087740    -0.096697049354    -0.861341720824
    C           -1.037242361132     2.508753326079    -0.128624577796
    H            0.768786694945     1.777715465286     0.806690517639
    H            0.843580574427     1.793513716175    -0.922489708355
    C           -2.413248256989     1.854388650881    -0.027791240952
    H           -0.991575430779     3.101492803712    -1.035890859229
    H           -0.944899560196     3.222159872198     0.683015757000
    H           -2.615877996380     1.197014978663    -0.865720112718
    H           -3.181917187778     2.619081612555    -0.025293110170
    H           -2.510385799124     1.271005657625     0.877448959248

  Mulliken Charges: (a.u.)
   Center  Symbol    Alpha    Beta     Spin     Total
       1     H     0.44763  0.44763  0.00000  0.10474
       2     C     3.15366  3.15366  0.00000 -0.30731
       3     C     3.08117  3.08117  0.00000 -0.16235
       4     H     0.45469  0.45469  0.00000  0.09062
       5     H     0.45609  0.45609  0.00000  0.08782
       6     C     3.02162  3.02162  0.00000 -0.04324
       7     H     0.44890  0.44890  0.00000  0.10221
       8     H     0.45992  0.45992  0.00000  0.08015
       9     N     3.63870  3.63870  0.00000 -0.27740
      10     H     0.45902  0.45902  0.00000  0.08195
      11     H     0.47501  0.47501  0.00000  0.04998
      12     C     3.03540  3.03540  0.00000 -0.07079
      13     H     0.44200  0.44200  0.00000  0.11599
      14     C     3.09537  3.09537  0.00000 -0.19074
      15     H     0.45760  0.45760  0.00000  0.08481
      16     H     0.46717  0.46717  0.00000  0.06566
      17     C     3.14675  3.14675  0.00000 -0.29350
      18     H     0.45127  0.45127  0.00000  0.09746
      19     H     0.45198  0.45198  0.00000  0.09604
      20     H     0.46025  0.46025  0.00000  0.07950
      21     H     0.44980  0.44980  0.00000  0.10040
      22     H     0.44600  0.44600  0.00000  0.10799

   Total alpha = 29.00000, Total beta = 29.00000, Total charge =  0.00000
