  ==> Input File <==

--------------------------------------------------------------------------
set {
	reference rhf
	basis cc-pvtz
}

set_num_threads( 4 )
memory 2 gb

molecule MOL {
0 1

H	 -0.366580	 2.045936	 -0.305741
C	 0.351829	 1.335402	 0.083179
N	 -0.000018	 0.000080	 -0.334836
H	 1.327156	 1.599860	 -0.305475
H	 0.380566	 1.445403	 1.171445
C	 0.931321	 -0.525111	 -1.303939
C	 -0.169916	 -0.890119	 0.788071
H	 0.599423	 -1.496952	 -1.646666
H	 0.981722	 0.132529	 -2.162517
H	 1.943306	 -0.635578	 -0.902998
H	 -0.924664	 -0.499492	 1.458853
H	 -0.500409	 -1.861665	 0.443110
H	 0.751392	 -1.030365	 1.361336

	symmetry c1
}
set optking {
	frozen_dihedral = ("
		6 3 2 1
	")
}

ee = optimize('scf')
oeprop('DIPOLE', 'QUADRUPOLE', 'MULLIKEN_CHARGES')
f=open( 'psi4out.xyz', 'w' )
f.write( "13  " )
f.write( str(ee) + "\n" )
f.write( MOL.save_string_xyz() )
f.close()
--------------------------------------------------------------------------

    Molecular point group: c1
  Charge       = 0
  Multiplicity = 1
  Basis Set: CC-PVTZ
  Basis Set:
  @DF-RHF Final Energy:  -173.32691724054638
    Total Energy =                       -173.3269172405463223
    Molecular point group: c1
  Basis Set: CC-PVTZ
  Basis Set:
  Basis Set: CC-PVTZ
  Basis Set:
  @DF-RHF Final Energy:  -173.32757759148279
    Total Energy =                       -173.3275775914827079
  Basis Set: CC-PVTZ
  Basis Set:
  Basis Set: CC-PVTZ
  Basis Set:
  @DF-RHF Final Energy:  -173.32770376929210
    Total Energy =                       -173.3277037692920999
  Basis Set: CC-PVTZ
  Basis Set:
  Charge       = 0
  Multiplicity = 1
  Basis Set: CC-PVTZ
  Basis Set:

    Orbital Energies (a.u.)
    -----------------------

    Doubly Occupied:

       1A    -15.535875     2A    -11.233885     3A    -11.233826
       4A    -11.233714     5A     -1.221300     6A     -0.951821
       7A     -0.951226     8A     -0.807102     9A     -0.638859
      10A     -0.629192    11A     -0.627547    12A     -0.550684
      13A     -0.547236    14A     -0.513883    15A     -0.501354
      16A     -0.499471    17A     -0.342976

  @DF-RHF Final Energy:  -173.32770593275362

   => Energetics <=

    Nuclear Repulsion Energy =            138.9771778008784793
    One-Electron Energy =                -508.5698640303227194
    Two-Electron Energy =                 196.2649802966906236
    DFT Exchange-Correlation Energy =       0.0000000000000000
    Empirical Dispersion Energy =           0.0000000000000000
    PCM Polarization Energy =               0.0000000000000000
    EFP Energy =                            0.0000000000000000
    Total Energy =                       -173.3277059327535881
    Molecular point group: c1
  Basis Set: CC-PVTZ
  Basis Set:

  -Total Gradient:
     Atom            X                  Y                   Z
    ------   -----------------  -----------------  -----------------
       1       -0.000894972793    -0.000183280842     0.001372940249
       2        0.001429968193     0.000108864508    -0.001336286806
       3       -0.001305440674     0.000727271427    -0.000915808995
       4        0.000027720145     0.000007067710     0.000006704465
       5       -0.000003528613     0.000051407259    -0.000034357191
       6        0.000796011524    -0.000588238683     0.000919871973
       7        0.000049454958    -0.000204754601     0.000022970503
       8       -0.000003877066    -0.000013801614    -0.000012557488
       9       -0.000042555182     0.000026616863     0.000052214143
      10       -0.000044293440     0.000028240846     0.000008094078
      11        0.000026697983     0.000034670453    -0.000070565678
      12       -0.000014323855    -0.000036445422     0.000019075914
      13       -0.000020861180     0.000042382095    -0.000032295169

  **** Optimization is complete! (in 4 steps) ****
    Final optimized geometry and variables:
    Molecular point group: c1

    Geometry (in Angstrom), charge = 0, multiplicity = 1:

    H           -0.682961139888     2.087097117172    -0.117047023345
    C            0.049176069005     1.379263646181     0.256854084486
    N           -0.281830966888     0.019737156198    -0.143191038566
    H            1.027741491657     1.681120240350    -0.103812993968
    H            0.066237648798     1.475533272153     1.336437280265
    C            0.629288287438    -0.517246118823    -1.124113863619
    C           -0.468934677989    -0.876115642670     0.972518615597
    H            0.277952201367    -1.482794182656    -1.466264297540
    H            0.677947878011     0.139014562378    -1.984034221289
    H            1.645611590797    -0.644379718572    -0.738948980777
    H           -1.231186720412    -0.488741448018     1.636285353146
    H           -0.803151817241    -1.842579779718     0.615954341192
    H            0.442833051810    -1.030641180819     1.557678054196

  Mulliken Charges: (a.u.)
   Center  Symbol    Alpha    Beta     Spin     Total
       1     H     0.45104  0.45104  0.00000  0.09792
       2     C     3.08502  3.08502  0.00000 -0.17004
       3     N     3.59955  3.59955  0.00000 -0.19909
       4     H     0.46363  0.46363  0.00000  0.07274
       5     H     0.46112  0.46112  0.00000  0.07776
       6     C     3.09084  3.09084  0.00000 -0.18168
       7     C     3.09040  3.09040  0.00000 -0.18081
       8     H     0.45364  0.45364  0.00000  0.09272
       9     H     0.45202  0.45202  0.00000  0.09595
      10     H     0.47351  0.47351  0.00000  0.05298
      11     H     0.45215  0.45215  0.00000  0.09569
      12     H     0.45357  0.45357  0.00000  0.09285
      13     H     0.47350  0.47350  0.00000  0.05299

   Total alpha = 17.00000, Total beta = 17.00000, Total charge =  0.00000
