                              Psi4 1.0.54 Driver

  ==> Input File <==

--------------------------------------------------------------------------
set {
	reference rhf
	basis cc-pvtz
}

set_num_threads( 4 )
memory 2 gb

molecule MOL {
0 1

O	 0.749630	 1.305591	 -0.000460
C	 0.576499	 0.134701	 -0.003900
C	 -0.765656	 -0.550508	 -0.002152
O	 1.564816	 -0.744612	 -0.000631
C	 -1.945526	 0.411052	 0.000603
H	 -0.794329	 -1.203792	 -0.868145
H	 -0.791555	 -1.205429	 0.862701
C	 -3.004813	 0.022906	 -1.025154
H	 -1.589091	 1.414539	 -0.197791
H	 -2.382701	 0.437275	 0.991345
H	 -2.598061	 0.020454	 -2.031065
H	 -3.834074	 0.719646	 -1.006650
H	 -3.401373	 -0.967604	 -0.827773
C	 2.884339	 -0.237801	 0.002883
H	 3.064150	 0.362814	 -0.876312
H	 3.533055	 -1.098529	 0.004958
H	 3.059365	 0.363432	 0.882614

	symmetry c1
}
set optking {
	frozen_dihedral = ("
		9 5 3 6
	")
}

ee,wfn = optimize('scf', return_wfn=True)
oeprop( wfn, 'DIPOLE', 'QUADRUPOLE', 'MULLIKEN_CHARGES')
f=open( 'psi4out.xyz', 'w' )
f.write( "17  " )
f.write( str(ee) + "\n" )
f.write( MOL.save_string_xyz() )
f.close()
--------------------------------------------------------------------------

    Molecular point group: c1
  Charge       = 0
  Multiplicity = 1
  Basis Set: CC-PVTZ
  Basis Set:
  @DF-RHF Final Energy:  -345.03078432848173
    Total Energy =                       -345.0307843284815590
    Molecular point group: c1
  Basis Set: CC-PVTZ
  Basis Set:
  Basis Set: CC-PVTZ
  Basis Set:
  @DF-RHF Final Energy:  -345.03083617256516
    Total Energy =                       -345.0308361725648183
  Basis Set: CC-PVTZ
  Basis Set:
  Basis Set: CC-PVTZ
  Basis Set:
  @DF-RHF Final Energy:  -345.03105864177581
    Total Energy =                       -345.0310586417760987
  Basis Set: CC-PVTZ
  Basis Set:
  Basis Set: CC-PVTZ
  Basis Set:
  @DF-RHF Final Energy:  -345.03117750200101
    Total Energy =                       -345.0311775020005030
  Basis Set: CC-PVTZ
  Basis Set:
  Charge       = 0
  Multiplicity = 1
  Basis Set: CC-PVTZ
  Basis Set:

    Orbital Energies (a.u.)
    -----------------------

    Doubly Occupied:

       1A    -20.596891     2A    -20.535279     3A    -11.365967
       4A    -11.278967     5A    -11.234201     6A    -11.218514
       7A    -11.212202     8A     -1.473237     9A     -1.366734
      10A     -1.078876    11A     -1.002781    12A     -0.939955
      13A     -0.829045    14A     -0.769234    15A     -0.704567
      16A     -0.685401    17A     -0.676863    18A     -0.630567
      19A     -0.601404    20A     -0.573096    21A     -0.570955
      22A     -0.532262    23A     -0.525575    24A     -0.493230
      25A     -0.487077    26A     -0.473902    27A     -0.461583
      28A     -0.443628

  @DF-RHF Final Energy:  -345.03117816322288

   => Energetics <=

    Nuclear Repulsion Energy =            313.2560235832538638
    One-Electron Energy =               -1091.0504134033080845
    Two-Electron Energy =                 432.7632116568314586
    DFT Exchange-Correlation Energy =       0.0000000000000000
    Empirical Dispersion Energy =           0.0000000000000000
    PCM Polarization Energy =               0.0000000000000000
    EFP Energy =                            0.0000000000000000
    Total Energy =                       -345.0311781632227621
    Molecular point group: c1
  Basis Set: CC-PVTZ
  Basis Set:

  -Total Gradient:
     Atom            X                  Y                   Z
    ------   -----------------  -----------------  -----------------
       1        0.000053181561    -0.000062051595     0.000013198465
       2       -0.000031691862    -0.000033593633    -0.000016197571
       3        0.001712908381     0.002213959006    -0.001143401798
       4       -0.000025920377     0.000104030151    -0.000016255218
       5       -0.000715203453    -0.000948617793    -0.002604130872
       6       -0.001333346680    -0.001686251558     0.001317775112
       7       -0.000013004889     0.000019223067     0.000018657806
       8       -0.000001294980     0.000004917457    -0.000014806955
       9        0.000297768856     0.000389626262     0.002436066855
      10       -0.000004437958    -0.000006355960    -0.000020246500
      11        0.000023200733    -0.000013692914     0.000003283590
      12       -0.000014960030     0.000022922067    -0.000009485818
      13       -0.000001945872     0.000002010097     0.000020119425
      14        0.000044168045    -0.000017495529     0.000021513110
      15       -0.000011521225    -0.000001446771    -0.000002619731
      16        0.000020090182     0.000010156794    -0.000002267066
      17        0.000002009573     0.000002660850    -0.000001202835

  **** Optimization is complete! (in 5 steps) ****
    Final optimized geometry and variables:
    Molecular point group: c1

    Geometry (in Angstrom), charge = 0, multiplicity = 1:

    O            0.733718001195     1.265099205376     0.149200610973
    C            0.547076694929     0.096404276643     0.146729697855
    C           -0.797734306283    -0.586960183652     0.123353546289
    O            1.527709259988    -0.791277116665     0.165028706521
    C           -2.005654319029     0.357613059849     0.124077980005
    H           -0.807695260962    -1.244584799399    -0.739052516592
    H           -0.817691479080    -1.254992226274     0.977131783684
    C           -3.084453384275    -0.052903405761    -0.872227609700
    H           -1.669433647409     1.364970433650    -0.075650361040
    H           -2.433127065834     0.383853212333     1.120346779265
    H           -2.703390970574    -0.037688585420    -1.887871790069
    H           -3.930958796475     0.621883984285    -0.825961144909
    H           -3.449303232520    -1.054909705004    -0.670809009072
    C            2.851401980343    -0.296383011655     0.187178215733
    H            3.049630304021     0.301599803036    -0.689923916520
    H            3.492763874874    -1.162618584654     0.199597212377
    H            3.019137314815     0.304407314964     1.068701267784

  Mulliken Charges: (a.u.)
   Center  Symbol    Alpha    Beta     Spin     Total
       1     O     4.19599  4.19599  0.00000 -0.39198
       2     C     2.80154  2.80154  0.00000  0.39692
       3     C     3.10474  3.10474  0.00000 -0.20949
       4     O     4.14754  4.14754  0.00000 -0.29507
       5     C     3.08774  3.08774  0.00000 -0.17549
       6     H     0.43968  0.43968  0.00000  0.12065
       7     H     0.43657  0.43657  0.00000  0.12686
       8     C     3.14904  3.14904  0.00000 -0.29809
       9     H     0.43580  0.43580  0.00000  0.12840
      10     H     0.45317  0.45317  0.00000  0.09365
      11     H     0.45459  0.45459  0.00000  0.09083
      12     H     0.44752  0.44752  0.00000  0.10497
      13     H     0.45567  0.45567  0.00000  0.08866
      14     C     3.03636  3.03636  0.00000 -0.07271
      15     H     0.45436  0.45436  0.00000  0.09128
      16     H     0.44541  0.44541  0.00000  0.10918
      17     H     0.45428  0.45428  0.00000  0.09143

   Total alpha = 28.00000, Total beta = 28.00000, Total charge =  0.00000

*** Psi4 exiting successfully. Buy a developer a beer!
