  ==> Input File <==

--------------------------------------------------------------------------
set {
	reference rhf
	basis 6-31G*
}

set_num_threads( 4 )
memory 2 gb

molecule MOL {
0 1

H	 -4.236494	 0.538104	 0.039757
O	 -3.517110	 -0.026191	 -0.205115
C	 -2.306886	 0.532354	 0.237577
C	 -1.177863	 -0.397191	 -0.171080
H	 -2.156308	 1.517575	 -0.201710
H	 -2.315015	 0.655684	 1.319734
C	 0.198102	 0.111031	 0.262842
H	 -1.208843	 -0.518759	 -1.250427
H	 -1.368741	 -1.376554	 0.258909
C	 1.331804	 -0.827780	 -0.158768
H	 0.361943	 1.100838	 -0.156218
H	 0.217265	 0.229072	 1.345532
C	 2.723619	 -0.410569	 0.329459
H	 1.342964	 -0.912588	 -1.244120
H	 1.116806	 -1.824343	 0.220779
C	 3.853818	 -0.678991	 -0.665998
H	 2.938219	 -0.944240	 1.252080
H	 2.712379	 0.646643	 0.587030
H	 3.881352	 -1.727186	 -0.951599
H	 3.745761	 -0.092000	 -1.572057
H	 4.817173	 -0.430664	 -0.231218

	symmetry c1
}
set optking {
	frozen_dihedral = ("
		16 13 10 14
	")
}

ee = optimize('scf')
oeprop('DIPOLE', 'QUADRUPOLE', 'MULLIKEN_CHARGES')
f=open( 'psi4out.xyz', 'w' )
f.write( "21  " )
f.write( str(ee) + "\n" )
f.write( MOL.save_string_xyz() )
f.close()
--------------------------------------------------------------------------

    Molecular point group: c1
  Charge       = 0
  Multiplicity = 1
  Basis Set: 6-31G*
  Basis Set:
  @DF-RHF Final Energy:  -310.21016762744244
    Total Energy =                       -310.2101676274426154
    Molecular point group: c1
  Basis Set: 6-31G*
  Basis Set:
  Basis Set: 6-31G*
  Basis Set:
  @DF-RHF Final Energy:  -310.21060564836330
    Total Energy =                       -310.2106056483634120
  Basis Set: 6-31G*
  Basis Set:
  Basis Set: 6-31G*
  Basis Set:
  @DF-RHF Final Energy:  -310.21065116060339
    Total Energy =                       -310.2106511606031063
  Basis Set: 6-31G*
  Basis Set:
  Basis Set: 6-31G*
  Basis Set:
  @DF-RHF Final Energy:  -310.21065787292156
    Total Energy =                       -310.2106578729213879
  Basis Set: 6-31G*
  Basis Set:
  Basis Set: 6-31G*
  Basis Set:
  @DF-RHF Final Energy:  -310.21066522510819
    Total Energy =                       -310.2106652251080732
  Basis Set: 6-31G*
  Basis Set:
  Charge       = 0
  Multiplicity = 1
  Basis Set: 6-31G*
  Basis Set:

    Orbital Energies (a.u.)
    -----------------------

    Doubly Occupied:

       1A    -20.551891     2A    -11.267155     3A    -11.216592
       4A    -11.214573     5A    -11.212999     6A    -11.210621
       7A    -11.208286     8A     -1.358717     9A     -1.085221
      10A     -1.033892    11A     -0.956727    12A     -0.867327
      13A     -0.802862    14A     -0.790876    15A     -0.692227
      16A     -0.662230    17A     -0.628043    18A     -0.597843
      19A     -0.584001    20A     -0.562819    21A     -0.545366
      22A     -0.521304    23A     -0.507251    24A     -0.485686
      25A     -0.477395    26A     -0.463076    27A     -0.456323
      28A     -0.442366    29A     -0.434029

  @DF-RHF Final Energy:  -310.21066547929962

   => Energetics <=

    Nuclear Repulsion Energy =            308.9900939676710436
    One-Electron Energy =               -1032.7261188157217475
    Two-Electron Energy =                 413.5253593687509692
    DFT Exchange-Correlation Energy =       0.0000000000000000
    Empirical Dispersion Energy =           0.0000000000000000
    PCM Polarization Energy =               0.0000000000000000
    EFP Energy =                            0.0000000000000000
    Total Energy =                       -310.2106654792996778
    Molecular point group: c1
  Basis Set: 6-31G*
  Basis Set:

  -Total Gradient:
     Atom            X                  Y                   Z
    ------   -----------------  -----------------  -----------------
       1       -0.000000677719    -0.000000295668     0.000000204128
       2       -0.000001465230    -0.000002098911     0.000001242285
       3        0.000003173000     0.000002141466    -0.000002823284
       4        0.000000727058     0.000000761054     0.000000855777
       5       -0.000000056161     0.000000653082     0.000000862473
       6        0.000000370425    -0.000000967075    -0.000001108484
       7       -0.000001656741     0.000008210033     0.000007727826
       8       -0.000003689196     0.000003752584     0.000000789736
       9        0.000006466122    -0.000001095188     0.000000131645
      10       -0.001528367083     0.005971484096    -0.000902625143
      11       -0.000012827686    -0.000002123561    -0.000007702049
      12        0.000007195308     0.000008572280    -0.000001272894
      13        0.000819082064    -0.004727298986     0.001780956291
      14        0.001141658261    -0.003933549083     0.000361489826
      15        0.000008201571    -0.000016473478    -0.000002430508
      16       -0.000408802908     0.002701311722    -0.001229325326
      17       -0.000025593953    -0.000011039468    -0.000009343911
      18       -0.000005071568     0.000003522381     0.000010864064
      19        0.000013316897    -0.000002843618     0.000003554880
      20       -0.000010303911    -0.000009414339    -0.000003946475
      21       -0.000001678543     0.000006790676    -0.000008100857

  **** Optimization is complete! (in 6 steps) ****
    Final optimized geometry and variables:
    Molecular point group: c1

    Geometry (in Angstrom), charge = 0, multiplicity = 1:

    H           -4.318427709823     0.793974422456     0.090356468089
    O           -3.603065784068     0.227901959348    -0.162108285170
    C           -2.390177390124     0.765290201055     0.299073745715
    C           -1.267678649176    -0.166150739774    -0.123079226044
    H           -2.227755215927     1.758134321699    -0.118252887770
    H           -2.403289575084     0.865588262093     1.383548326675
    C            0.109853832997     0.319200850439     0.328915097632
    H           -1.293505844128    -0.264797975807    -1.204905982036
    H           -1.470034035325    -1.152474355759     0.285217214524
    C            1.243854610215    -0.610176879872    -0.103718619771
    H            0.295195247440     1.315450610580    -0.069590692880
    H            0.124496254560     0.417667307085     1.413520283021
    C            2.632021686122    -0.172376132512     0.399080887452
    H            1.257301570853    -0.705085641348    -1.187462621510
    H            1.034677555398    -1.614518459526     0.259896399094
    C            3.753378611007    -0.447754063624    -0.602776707458
    H            2.852023892471    -0.658904510887     1.345269389207
    H            2.619015303898     0.895277832327     0.608449160743
    H            3.813540885763    -1.504291992748    -0.850167926273
    H            3.586659027953     0.097570053728    -1.527091286141
    H            4.718594589352    -0.146024535748    -0.207550964660

  Mulliken Charges: (a.u.)
   Center  Symbol    Alpha    Beta     Spin     Total
       1     H     0.28117  0.28117  0.00000  0.43766
       2     O     4.37176  4.37176  0.00000 -0.74352
       3     C     2.98978  2.98978  0.00000  0.02044
       4     C     3.15985  3.15985  0.00000 -0.31970
       5     H     0.43283  0.43283  0.00000  0.13433
       6     H     0.43283  0.43283  0.00000  0.13434
       7     C     3.16118  3.16118  0.00000 -0.32236
       8     H     0.41466  0.41466  0.00000  0.17067
       9     H     0.41463  0.41463  0.00000  0.17075
      10     C     3.15335  3.15335  0.00000 -0.30670
      11     H     0.42331  0.42331  0.00000  0.15338
      12     H     0.42305  0.42305  0.00000  0.15389
      13     C     3.15343  3.15343  0.00000 -0.30686
      14     H     0.42072  0.42072  0.00000  0.15856
      15     H     0.42116  0.42116  0.00000  0.15768
      16     C     3.23993  3.23993  0.00000 -0.47987
      17     H     0.42051  0.42051  0.00000  0.15899
      18     H     0.42250  0.42250  0.00000  0.15499
      19     H     0.42151  0.42151  0.00000  0.15698
      20     H     0.42146  0.42146  0.00000  0.15708
      21     H     0.42036  0.42036  0.00000  0.15928

   Total alpha = 29.00000, Total beta = 29.00000, Total charge = -0.00000
