  ==> Input File <==

--------------------------------------------------------------------------
set {
	reference rhf
	basis 6-31G*
}

set_num_threads( 1 )
memory 2 gb

molecule MOL {
0 1

H	 -3.407059	 -1.043082	 0.000000
O	 -3.119761	 -0.140267	 0.000000
C	 -1.777559	 -0.059267	 0.000000
C	 -1.091798	 0.886016	 0.757083
C	 -1.083347	 -0.964302	 -0.793125
H	 -1.637480	 1.583824	 1.369133
C	 0.286230	 0.922434	 0.717932
H	 -1.634810	 -1.683856	 -1.367932
C	 0.294773	 -0.915316	 -0.821755
H	 0.828196	 1.646411	 1.296923
C	 0.995967	 0.023100	 -0.071204
H	 0.833224	 -1.616438	 -1.436215
C	 2.471000	 0.063438	 -0.111976
O	 3.146521	 0.832839	 0.498311
H	 2.935651	 -0.685054	 -0.762380

	symmetry c1
}
set optking {
	frozen_dihedral = ("
		7 11 13 14
	")
}

ee = energy('scf')
oeprop('DIPOLE', 'QUADRUPOLE', 'MULLIKEN_CHARGES')
f=open( 'psi4out.xyz', 'w' )
f.write( "15  " )
f.write( str(ee) + "\n" )
f.write( MOL.save_string_xyz() )
f.close()
--------------------------------------------------------------------------

    Molecular point group: c1

    Geometry (in Angstrom), charge = 0, multiplicity = 1:

       Center              X                  Y                   Z               Mass
    ------------   -----------------  -----------------  -----------------  -----------------
           H         -3.402737712767    -1.114688282262    -0.026110035838     1.007825032070
           O         -3.115439712767    -0.211873282262    -0.026110035838    15.994914619560
           C         -1.773237712767    -0.130873282262    -0.026110035838    12.000000000000
           C         -1.087476712767     0.814409717738     0.730972964162    12.000000000000
           C         -1.079025712767    -1.035908282262    -0.819235035838    12.000000000000
           H         -1.633158712767     1.512217717738     1.343022964162     1.007825032070
           C          0.290551287233     0.850827717738     0.691821964162    12.000000000000
           H         -1.630488712767    -1.755462282262    -1.394042035838     1.007825032070
           C          0.299094287233    -0.986922282262    -0.847865035838    12.000000000000
           H          0.832517287233     1.574804717738     1.270812964162     1.007825032070
           C          1.000288287233    -0.048506282262    -0.097314035838    12.000000000000
           H          0.837545287233    -1.688044282262    -1.462325035838     1.007825032070
           C          2.475321287233    -0.008168282262    -0.138086035838    12.000000000000
           O          3.150842287233     0.761232717738     0.472200964162    15.994914619560
           H          2.939972287233    -0.756660282262    -0.788490035838     1.007825032070

  Charge       = 0
  Multiplicity = 1
  Basis Set: 6-31G*
  Basis Set:

    Orbital Energies (a.u.)
    -----------------------

    Doubly Occupied:

       1A    -20.603174     2A    -20.557626     3A    -11.329305
       4A    -11.320368     5A    -11.261840     6A    -11.254662
       7A    -11.242822     8A    -11.241219     9A    -11.241046
      10A     -1.427410    11A     -1.398555    12A     -1.170562
      13A     -1.041896    14A     -1.037329    15A     -0.891627
      16A     -0.857426    17A     -0.802751    18A     -0.756564
      19A     -0.699594    20A     -0.683580    21A     -0.641231
      22A     -0.627651    23A     -0.618762    24A     -0.607906
      25A     -0.568051    26A     -0.552371    27A     -0.546545
      28A     -0.501678    29A     -0.483575    30A     -0.419916
      31A     -0.357020    32A     -0.331562

  @DF-RHF Final Energy:  -418.28551658078203

   => Energetics <=

    Nuclear Repulsion Energy =            401.3791314503692433
    One-Electron Energy =               -1365.1781714936851131
    Two-Electron Energy =                 545.5135234625341809
    DFT Exchange-Correlation Energy =       0.0000000000000000
    Empirical Dispersion Energy =           0.0000000000000000
    PCM Polarization Energy =               0.0000000000000000
    EFP Energy =                            0.0000000000000000
    Total Energy =                       -418.2855165807817457

  Mulliken Charges: (a.u.)
   Center  Symbol    Alpha    Beta     Spin     Total
       1     H     0.26755  0.26755  0.00000  0.46491
       2     O     4.37848  4.37848  0.00000 -0.75696
       3     C     2.78735  2.78735  0.00000  0.42531
       4     C     3.12654  3.12654  0.00000 -0.25307
       5     C     3.14368  3.14368  0.00000 -0.28735
       6     H     0.38660  0.38660  0.00000  0.22680
       7     C     3.08066  3.08066  0.00000 -0.16132
       8     H     0.39612  0.39612  0.00000  0.20775
       9     C     3.09350  3.09350  0.00000 -0.18700
      10     H     0.37409  0.37409  0.00000  0.25181
      11     C     3.06604  3.06604  0.00000 -0.13208
      12     H     0.39083  0.39083  0.00000  0.21834
      13     C     2.83047  2.83047  0.00000  0.33906
      14     O     4.25327  4.25327  0.00000 -0.50653
      15     H     0.42483  0.42483  0.00000  0.15034

   Total alpha = 32.00000, Total beta = 32.00000, Total charge = -0.00000
