  ==> Input File <==

--------------------------------------------------------------------------
set {
	reference rhf
	basis 6-31G*
}

set_num_threads( 4 )
memory 2 gb

molecule MOL {
0 1

H	 0.496232	 1.284779	 -1.002956
O	 0.055946	 1.300438	 -0.164479
C	 0.004957	 -0.004114	 0.366649
C	 1.201664	 -0.828089	 -0.095740
C	 -1.317755	 -0.601827	 -0.081511
H	 0.013527	 0.048298	 1.454924
H	 1.216388	 -0.895289	 -1.178704
H	 2.135132	 -0.372895	 0.226467
H	 1.166770	 -1.832878	 0.313827
H	 -1.355732	 -0.658248	 -1.164429
H	 -2.141614	 0.017037	 0.254547
H	 -1.447303	 -1.600817	 0.322594

	symmetry c1
}
set optking {
	frozen_dihedral = ("
		1 2 3 4
	")
}

ee = optimize('scf')
oeprop('DIPOLE', 'QUADRUPOLE', 'MULLIKEN_CHARGES')
f=open( 'psi4out.xyz', 'w' )
f.write( "12  " )
f.write( str(ee) + "\n" )
f.write( MOL.save_string_xyz() )
f.close()
--------------------------------------------------------------------------

    Molecular point group: c1
  Charge       = 0
  Multiplicity = 1
  Basis Set: 6-31G*
  Basis Set:
  @DF-RHF Final Energy:  -193.11227307884485
    Total Energy =                       -193.1122730788449360
    Molecular point group: c1
  Basis Set: 6-31G*
  Basis Set:
  Basis Set: 6-31G*
  Basis Set:
  @DF-RHF Final Energy:  -193.11334513638090
    Total Energy =                       -193.1133451363808433
  Basis Set: 6-31G*
  Basis Set:
  Basis Set: 6-31G*
  Basis Set:
  @DF-RHF Final Energy:  -193.11368458673721
    Total Energy =                       -193.1136845867372358
  Basis Set: 6-31G*
  Basis Set:
  Basis Set: 6-31G*
  Basis Set:
  @DF-RHF Final Energy:  -193.11368655207437
    Total Energy =                       -193.1136865520743413
  Basis Set: 6-31G*
  Basis Set:
  Charge       = 0
  Multiplicity = 1
  Basis Set: 6-31G*
  Basis Set:

    Orbital Energies (a.u.)
    -----------------------

    Doubly Occupied:

       1A    -20.549685     2A    -11.275592     3A    -11.218743
       4A    -11.207619     5A     -1.359204     6A     -1.042315
       7A     -0.942067     8A     -0.816813     9A     -0.660736
      10A     -0.648204    11A     -0.604581    12A     -0.567014
      13A     -0.546042    14A     -0.515740    15A     -0.512363
      16A     -0.465948    17A     -0.428671

  @DF-RHF Final Energy:  -193.11368715503878

   => Energetics <=

    Nuclear Repulsion Energy =            135.3845674014005169
    One-Electron Energy =                -530.2738326348496685
    Two-Electron Energy =                 201.7755780784104616
    DFT Exchange-Correlation Energy =       0.0000000000000000
    Empirical Dispersion Energy =           0.0000000000000000
    PCM Polarization Energy =               0.0000000000000000
    EFP Energy =                            0.0000000000000000
    Total Energy =                       -193.1136871550386616
    Molecular point group: c1
  Basis Set: 6-31G*
  Basis Set:

  -Total Gradient:
     Atom            X                  Y                   Z
    ------   -----------------  -----------------  -----------------
       1        0.001696099776     0.000203865055     0.000984779363
       2       -0.002341567461    -0.000419175773    -0.001580435444
       3        0.001231171992     0.000476010550     0.001570169340
       4       -0.000583815554    -0.000276334170    -0.000983534909
       5       -0.000025302588     0.000056216714    -0.000016613940
       6        0.000019298035    -0.000020505673    -0.000013393837
       7       -0.000028651736     0.000019897590     0.000039751528
       8        0.000025027954    -0.000010894762    -0.000026309876
       9        0.000003137896    -0.000019429289     0.000009307386
      10        0.000005258939     0.000003263248     0.000017566702
      11       -0.000008492523    -0.000005778838    -0.000009193089
      12        0.000007835267    -0.000007134654     0.000007906777

  **** Optimization is complete! (in 5 steps) ****
    Final optimized geometry and variables:
    Molecular point group: c1

    Geometry (in Angstrom), charge = 0, multiplicity = 1:

    H            0.555435713335     1.345355487393    -0.937377629024
    O            0.087727852515     1.329606162836    -0.114446507693
    C            0.000622451548     0.004163591655     0.362051231744
    C            1.197786922699    -0.824420226503    -0.088963979442
    C           -1.323624795568    -0.617456839281    -0.066491129938
    H            0.016283676904     0.083568250181     1.443156475969
    H            1.209483366448    -0.924273077722    -1.172648835577
    H            2.126444897580    -0.356068978507     0.220971823384
    H            1.163361315605    -1.823352780060     0.332815671792
    H           -1.371365850040    -0.708873072697    -1.148406239531
    H           -2.149423444029     0.007109674640     0.254270203889
    H           -1.451605787531    -1.606672146154     0.363663022266

  Mulliken Charges: (a.u.)
   Center  Symbol    Alpha    Beta     Spin     Total
       1     H     0.28230  0.28230  0.00000  0.43540
       2     O     4.37562  4.37562  0.00000 -0.75124
       3     C     2.91087  2.91087  0.00000  0.17827
       4     C     3.26076  3.26076  0.00000 -0.52151
       5     C     3.24006  3.24006  0.00000 -0.48013
       6     H     0.41803  0.41803  0.00000  0.16394
       7     H     0.42462  0.42462  0.00000  0.15077
       8     H     0.41167  0.41167  0.00000  0.17666
       9     H     0.41537  0.41537  0.00000  0.16925
      10     H     0.42523  0.42523  0.00000  0.14955
      11     H     0.41084  0.41084  0.00000  0.17833
      12     H     0.42464  0.42464  0.00000  0.15073

   Total alpha = 17.00000, Total beta = 17.00000, Total charge = -0.00000
