  ==> Input File <==

--------------------------------------------------------------------------
set {
	reference rhf
	basis 6-31G*
}

set_num_threads( 4 )
memory 2 gb

molecule MOL {
0 1

H	 -3.974642	 -0.944162	 -0.845213
C	 -2.908656	 -0.803893	 -0.873188
C	 -2.327636	 -0.131299	 -1.937698
C	 -2.120327	 -1.296091	 0.155020
H	 -2.940166	 0.249919	 -2.734469
C	 -0.956924	 0.048667	 -1.972965
H	 -2.572495	 -1.817214	 0.979387
C	 -0.748015	 -1.117120	 0.121832
H	 -0.490118	 0.566618	 -2.788741
C	 -0.162646	 -0.443457	 -0.943665
H	 -0.134141	 -1.496336	 0.915353
C	 1.308687	 -0.223184	 -1.029204
O	 1.970282	 -0.730723	 0.000018
O	 1.845002	 0.348828	 -1.925880
C	 3.377318	 -0.566646	 -0.000065
H	 3.695437	 -0.028981	 -0.881264
H	 3.789299	 -1.563704	 0.000236
H	 3.695516	 -0.028316	 0.880770

	symmetry c1
}
set optking {
	frozen_dihedral = ("
		12 13 15 16
	")
}

ee = optimize('scf')
oeprop('DIPOLE', 'QUADRUPOLE', 'MULLIKEN_CHARGES')
f=open( 'psi4out.xyz', 'w' )
f.write( "18  " )
f.write( str(ee) + "\n" )
f.write( MOL.save_string_xyz() )
f.close()
--------------------------------------------------------------------------

    Molecular point group: c1
  Charge       = 0
  Multiplicity = 1
  Basis Set: 6-31G*
  Basis Set:
  @DF-RHF Final Energy:  -457.34741142266853
    Total Energy =                       -457.3474114226688698
    Molecular point group: c1
  Basis Set: 6-31G*
  Basis Set:
  Basis Set: 6-31G*
  Basis Set:
  @DF-RHF Final Energy:  -457.34777426547828
    Total Energy =                       -457.3477742654781650
  Basis Set: 6-31G*
  Basis Set:
  Basis Set: 6-31G*
  Basis Set:
  @DF-RHF Final Energy:  -457.34831318851974
    Total Energy =                       -457.3483131885197963
  Basis Set: 6-31G*
  Basis Set:
  Basis Set: 6-31G*
  Basis Set:
  @DF-RHF Final Energy:  -457.34819822328359
    Total Energy =                       -457.3481982232833616
  Basis Set: 6-31G*
  Basis Set:
  Basis Set: 6-31G*
  Basis Set:
  @DF-RHF Final Energy:  -457.34846237262690
    Total Energy =                       -457.3484623726271820
  Basis Set: 6-31G*
  Basis Set:
  Charge       = 0
  Multiplicity = 1
  Basis Set: 6-31G*
  Basis Set:

    Orbital Energies (a.u.)
    -----------------------

    Doubly Occupied:

       1A    -20.606630     2A    -20.543599     3A    -11.379517
       4A    -11.281368     5A    -11.245018     6A    -11.244873
       7A    -11.243572     8A    -11.241171     9A    -11.236979
      10A    -11.236217    11A     -1.470014    12A     -1.364462
      13A     -1.164723    14A     -1.047769    15A     -1.024304
      16A     -0.979295    17A     -0.859631    18A     -0.833780
      19A     -0.776870    20A     -0.739898    21A     -0.683855
      22A     -0.674925    23A     -0.671490    24A     -0.631271
      25A     -0.623493    26A     -0.597255    27A     -0.584553
      28A     -0.567987    29A     -0.523488    30A     -0.516225
      31A     -0.503846    32A     -0.498074    33A     -0.454982
      34A     -0.444971    35A     -0.344553    36A     -0.340476

  @DF-RHF Final Energy:  -457.34846610453127

   => Energetics <=

    Nuclear Repulsion Energy =            492.5620926063491538
    One-Electron Energy =               -1599.4588507864609710
    Two-Electron Energy =                 649.5482920755803207
    DFT Exchange-Correlation Energy =       0.0000000000000000
    Empirical Dispersion Energy =           0.0000000000000000
    PCM Polarization Energy =               0.0000000000000000
    EFP Energy =                            0.0000000000000000
    Total Energy =                       -457.3484661045315534
    Molecular point group: c1
  Basis Set: 6-31G*
  Basis Set:

  -Total Gradient:
     Atom            X                  Y                   Z
    ------   -----------------  -----------------  -----------------
       1        0.000003489960    -0.000000278115     0.000002034042
       2        0.000001647432     0.000000524485    -0.000002640978
       3       -0.000005351848     0.000001064960     0.000003653677
       4        0.000007806311     0.000001155979    -0.000006694472
       5        0.000002829220    -0.000000192818     0.000000068946
       6        0.000014268064     0.000001545937     0.000001721943
       7        0.000001751942    -0.000000413645     0.000000915489
       8       -0.000002143483     0.000004107817     0.000001219078
       9        0.000000465399    -0.000000068450    -0.000003228775
      10       -0.000009641024    -0.000016033362    -0.000004824732
      11       -0.000002624852     0.000000177932    -0.000000164832
      12        0.000002547585     0.000019659987     0.000023236091
      13        0.000008619040     0.000077178075     0.000072604136
      14        0.000039238206    -0.000011169486     0.000017068234
      15       -0.000066860654    -0.000141257317    -0.000075951665
      16       -0.000010350655     0.000044721077    -0.000010418274
      17        0.000085439582    -0.000003354556     0.000007164378
      18       -0.000071130220     0.000022631496    -0.000025762281

  **** Optimization is complete! (in 6 steps) ****
    Final optimized geometry and variables:
    Molecular point group: c1

    Geometry (in Angstrom), charge = 0, multiplicity = 1:

    H           -4.027062580978    -0.473010957162     0.018776200516
    C           -2.961986922278    -0.328666061979    -0.019898790402
    C           -2.394134713626     0.346411438525    -1.089919484598
    C           -2.161473494723    -0.818095313401     1.000103679117
    H           -3.015934953959     0.725601694405    -1.880511375804
    C           -1.024588356562     0.531543285332    -1.138846911178
    H           -2.603329816504    -1.341160901173     1.828819593835
    C           -0.790239088028    -0.633875940615     0.953203990323
    H           -0.568315635792     1.051454604213    -1.959193663842
    C           -0.217808639803     0.042251304687    -0.117822626748
    H           -0.167421693492    -1.011045998024     1.740483233372
    C            1.252440468091     0.269240319756    -0.219905518869
    O            1.918205049540    -0.239726418568     0.807000525400
    O            1.768642972709     0.844785096988    -1.125796157198
    C            3.329283874173    -0.106612162557     0.856522768446
    H            3.694816905357     0.425840800666    -0.004629668704
    H            3.754692040148    -1.099573991567     0.893106566976
    H            3.578762290084     0.427796768717     1.762239790769

  Mulliken Charges: (a.u.)
   Center  Symbol    Alpha    Beta     Spin     Total
       1     H     0.39549  0.39549  0.00000  0.20902
       2     C     3.09000  3.09000  0.00000 -0.18000
       3     C     3.10702  3.10702  0.00000 -0.21403
       4     C     3.10708  3.10708  0.00000 -0.21416
       5     H     0.39549  0.39549  0.00000  0.20901
       6     C     3.08657  3.08657  0.00000 -0.17314
       7     H     0.39641  0.39641  0.00000  0.20718
       8     C     3.08689  3.08689  0.00000 -0.17378
       9     H     0.37593  0.37593  0.00000  0.24815
      10     C     3.07802  3.07802  0.00000 -0.15604
      11     H     0.38063  0.38063  0.00000  0.23873
      12     C     2.57938  2.57938  0.00000  0.84125
      13     O     4.31675  4.31675  0.00000 -0.63350
      14     O     4.29128  4.29128  0.00000 -0.58256
      15     C     3.09881  3.09881  0.00000 -0.19761
      16     H     0.39145  0.39145  0.00000  0.21709
      17     H     0.41140  0.41140  0.00000  0.17721
      18     H     0.41141  0.41141  0.00000  0.17718

   Total alpha = 36.00000, Total beta = 36.00000, Total charge = -0.00000
