  ==> Input File <==

--------------------------------------------------------------------------
set {
	reference rhf
	basis 6-31G*
}

set_num_threads( 4 )
memory 2 gb

molecule MOL {
0 1

O	 -2.324811	 1.361668	 -0.277141
C	 -2.105949	 0.203097	 -0.092081
C	 -0.889235	 -0.467034	 -0.705952
C	 -3.002726	 -0.644460	 0.782455
C	 -1.162672	 -1.954800	 -0.979683
H	 -0.071087	 -0.373394	 -0.000140
H	 -0.601033	 0.032999	 -1.626241
C	 0.055953	 -2.669108	 -1.569032
H	 -1.464424	 -2.420101	 -0.048112
H	 -2.002065	 -2.052765	 -1.666392
C	 -0.183835	 -4.140423	 -1.926506
H	 0.885096	 -2.600572	 -0.867211
H	 0.371705	 -2.141371	 -2.466608
C	 -0.452812	 -5.049286	 -0.725832
H	 0.690591	 -4.510287	 -2.455913
H	 -1.013634	 -4.209545	 -2.627038
H	 0.357097	 -4.991699	 -0.003713
H	 -0.541265	 -6.084604	 -1.039985
H	 -1.371969	 -4.785860	 -0.213438
H	 -3.496582	 -1.399307	 0.176174
H	 -3.747939	 -0.023774	 1.260148
H	 -2.421318	 -1.168775	 1.535358

	symmetry c1
}
set optking {
	frozen_dihedral = ("
		6 3 2 1
	")
}

ee = optimize('scf')
oeprop('DIPOLE', 'QUADRUPOLE', 'MULLIKEN_CHARGES')
f=open( 'psi4out.xyz', 'w' )
f.write( "22  " )
f.write( str(ee) + "\n" )
f.write( MOL.save_string_xyz() )
f.close()
--------------------------------------------------------------------------

    Molecular point group: c1
  Charge       = 0
  Multiplicity = 1
  Basis Set: 6-31G*
  Basis Set:
  @DF-RHF Final Energy:  -348.09382384668720
    Total Energy =                       -348.0938238466869734
    Molecular point group: c1
  Basis Set: 6-31G*
  Basis Set:
  Basis Set: 6-31G*
  Basis Set:
  @DF-RHF Final Energy:  -348.09593867563814
    Total Energy =                       -348.0959386756381946
  Basis Set: 6-31G*
  Basis Set:
  Basis Set: 6-31G*
  Basis Set:
  @DF-RHF Final Energy:  -348.09690137760322
    Total Energy =                       -348.0969013776028191
  Basis Set: 6-31G*
  Basis Set:
  Basis Set: 6-31G*
  Basis Set:
  @DF-RHF Final Energy:  -348.09683243648902
    Total Energy =                       -348.0968324364892510
  Basis Set: 6-31G*
  Basis Set:
  @DF-RHF Final Energy:  -348.09693519894199
    Total Energy =                       -348.0969351989423899
  @DF-RHF Final Energy:  -348.09702211063188
    Total Energy =                       -348.0970221106318832
  @DF-RHF Final Energy:  -348.09702468130388
    Total Energy =                       -348.0970246813036511
  Basis Set: 6-31G*
  Basis Set:
  @DF-RHF Final Energy:  -348.09701734219112
    Total Energy =                       -348.0970173421911795
  Basis Set: 6-31G*
  Basis Set:
  Basis Set: 6-31G*
  Basis Set:
  @DF-RHF Final Energy:  -348.09702129059002
    Total Energy =                       -348.0970212905900212
  Basis Set: 6-31G*
  Basis Set:
  Basis Set: 6-31G*
  Basis Set:
  @DF-RHF Final Energy:  -348.09702513093919
    Total Energy =                       -348.0970251309387891
  Basis Set: 6-31G*
  Basis Set:
  Charge       = 0
  Multiplicity = 1
  Basis Set: 6-31G*
  Basis Set:

    Orbital Energies (a.u.)
    -----------------------

    Doubly Occupied:

       1A    -20.546629     2A    -11.325028     3A    -11.231488
       4A    -11.230251     5A    -11.227530     6A    -11.224864
       7A    -11.223254     8A    -11.215539     9A     -1.392720
      10A     -1.099078    11A     -1.045946    12A     -0.996516
      13A     -0.941271    14A     -0.863929    15A     -0.789594
      16A     -0.731951    17A     -0.660712    18A     -0.648531
      19A     -0.630265    20A     -0.619554    21A     -0.599887
      22A     -0.586610    23A     -0.556126    24A     -0.545214
      25A     -0.538683    26A     -0.514273    27A     -0.507563
      28A     -0.483622    29A     -0.474657    30A     -0.467042
      31A     -0.465176    32A     -0.396372

  @DF-RHF Final Energy:  -348.09702517153715

   => Energetics <=

    Nuclear Repulsion Energy =            372.6807305129590873
    One-Electron Energy =               -1209.9957581199332708
    Two-Electron Energy =                 489.2180024354370289
    DFT Exchange-Correlation Energy =       0.0000000000000000
    Empirical Dispersion Energy =           0.0000000000000000
    PCM Polarization Energy =               0.0000000000000000
    EFP Energy =                            0.0000000000000000
    Total Energy =                       -348.0970251715370978
    Molecular point group: c1
  Basis Set: 6-31G*
  Basis Set:

  -Total Gradient:
     Atom            X                  Y                   Z
    ------   -----------------  -----------------  -----------------
       1        0.000765848585     0.000381262414     0.001137931873
       2       -0.000991052152    -0.000306584173    -0.001730855822
       3       -0.000225031402    -0.001227056441     0.001251103941
       4        0.000009949093     0.000010757491     0.000009505987
       5        0.000009413854     0.000010341351     0.000010333704
       6        0.000440937490     0.001139759530    -0.000672536191
       7        0.000005188714     0.000000912734    -0.000003058518
       8       -0.000022357384     0.000002060074    -0.000016015900
       9       -0.000005221628    -0.000007586220     0.000011189677
      10        0.000005440661    -0.000011209932     0.000001575205
      11        0.000026973567     0.000000472120    -0.000002628272
      12       -0.000008125872    -0.000013680618     0.000000472792
      13        0.000000399720     0.000007539239     0.000001319730
      14       -0.000013626152     0.000006303921     0.000004618213
      15        0.000006485585     0.000008889270    -0.000002598032
      16        0.000003836759    -0.000002892091     0.000001430580
      17        0.000005391634    -0.000008314082    -0.000004996363
      18       -0.000009366154     0.000002560075    -0.000002246573
      19       -0.000002000058     0.000009355074     0.000012625391
      20        0.000003574481     0.000000542801    -0.000005596591
      21       -0.000004830349    -0.000001565423     0.000001087990
      22       -0.000001828992    -0.000001867125    -0.000002662821

  **** Optimization is complete! (in 11 steps) ****
    Final optimized geometry and variables:
    Molecular point group: c1

    Geometry (in Angstrom), charge = 0, multiplicity = 1:

    O           -1.009843036997     3.067604535543     0.308981305234
    C           -0.864758060689     1.915158799204     0.583258976271
    C            0.317221979041     1.136557237777     0.026355550071
    C           -1.812173923149     1.217613721396     1.536542430813
    C            0.084535525116    -0.348305601793    -0.268169573735
    H            1.126969668852     1.249288454052     0.747182470285
    H            0.635415434503     1.659666404210    -0.868228343550
    C            1.323745162813    -1.008581221978    -0.879210747967
    H           -0.195943689675    -0.866138598244     0.643206354360
    H           -0.751733109998    -0.455877839811    -0.956753342005
    C            1.131494615115    -2.475691562940    -1.279177147477
    H            2.153240674708    -0.933180722081    -0.177891656607
    H            1.619393142281    -0.445052652480    -1.761083915418
    C            0.891374981917    -3.428996300872    -0.107089282102
    H            2.017545087623    -2.801714924297    -1.817744164526
    H            0.304976228372    -2.551089002797    -1.982691611809
    H            1.698118617750    -3.366863057009     0.618346583806
    H            0.837674915781    -4.456661684564    -0.452387349702
    H           -0.037323830373    -3.212769022460     0.410798878022
    H           -2.375958898201     0.448154758490     1.018121623978
    H           -2.497996726229     1.943571608488     1.950220800091
    H           -1.264891553949     0.731703945379     2.338920732129

  Mulliken Charges: (a.u.)
   Center  Symbol    Alpha    Beta     Spin     Total
       1     O     4.26297  4.26297  0.00000 -0.52593
       2     C     2.73134  2.73134  0.00000  0.53731
       3     C     3.20734  3.20734  0.00000 -0.41468
       4     C     3.29226  3.29226  0.00000 -0.58451
       5     C     3.16490  3.16490  0.00000 -0.32980
       6     H     0.40631  0.40631  0.00000  0.18738
       7     H     0.39899  0.39899  0.00000  0.20202
       8     C     3.15306  3.15306  0.00000 -0.30612
       9     H     0.41702  0.41702  0.00000  0.16596
      10     H     0.41828  0.41828  0.00000  0.16344
      11     C     3.15318  3.15318  0.00000 -0.30636
      12     H     0.42236  0.42236  0.00000  0.15529
      13     H     0.41831  0.41831  0.00000  0.16337
      14     C     3.24186  3.24186  0.00000 -0.48373
      15     H     0.41855  0.41855  0.00000  0.16289
      16     H     0.42190  0.42190  0.00000  0.15620
      17     H     0.42147  0.42147  0.00000  0.15705
      18     H     0.41720  0.41720  0.00000  0.16560
      19     H     0.42112  0.42112  0.00000  0.15776
      20     H     0.40584  0.40584  0.00000  0.18831
      21     H     0.39574  0.39574  0.00000  0.20851
      22     H     0.40999  0.40999  0.00000  0.18003

   Total alpha = 32.00000, Total beta = 32.00000, Total charge = -0.00000
